%VERSION  VERSION_STAMP = V0001.000  DATE = 05/24/22  13:33:43                  
%FLAG TITLE                                                                     
%FORMAT(20a4)                                                                   
F02                                                                             
%FLAG POINTERS                                                                  
%FORMAT(10I8)                                                                   
    5212      10    3455     921    6098     121    2908     276       0       0
   14456     847     921     121     276      17      36      35      12       0
       0       0       0       0       0       0       0       1      30       0
       0
%FLAG ATOM_NAME                                                                 
%FORMAT(20a4)                                                                   
N   HN  CA  HA  C   O   CB  HB2 HB3 CG  HG1 HG2 HG3 C   O   N   CN  HN1 HN2 HN3 
CA  HA2 HA3 C   O   N   CN  HN1 HN2 HN3 CA  HA  CB  HB1 HB2 CG  HG  CD1 HD11HD12
HD13CD2 HD21HD22HD23N   H2  CA  H1  C   O   C3  HB  CG1 HG11HG12HG13CG2 HG21HG22
HG23C   O   N   CN  HN1 HN2 HN3 CA  HA  CB  HB1 HB2 CG  HG  CD1 HD11HD12HD13CD2 
HD21HD22HD23N   H1  CA  HA  CB  HB1 HB2 HB3 C   O   C   O   N   HN  CA  HA  CB  
HB1 HB2 HB3 C   O   N   C10 H1  H2  H3  CA  H4  C4  HB1 H5  C5  H6  C6  H7  H8  
H9  C7  H10 H11 H12 C   O   N   CN  HN1 HN2 HN3 CA  HA  CB  HB2 HB3 CG  HG  CD1 
HD11HD12HD13CD2 HD21HD22HD23C   O   N   C8  H1  H2  H3  CA  H4  C4  H5  OG1 HG1 
CE  HE  CZ  HZ  CH  HH1 HH2 HH3 CD2 HD22HD23C5  HG2 CD1 HD11HD12HD13C   O   N   
CN  HN1 HN2 HN3 CA  HA  CB  HB  CG1 HG11HG12HG13CG2 HG21HG22HG23HC1 C1  HC2 HC3 
O1  HO1 HC1 C1  HC2 HC3 O1  HO1 HC1 C1  HC2 HC3 O1  HO1 HC1 C1  HC2 HC3 O1  HO1 
HC1 C1  HC2 HC3 O1  HO1 HC1 C1  HC2 HC3 O1  HO1 HC1 C1  HC2 HC3 O1  HO1 HC1 C1  
HC2 HC3 O1  HO1 HC1 C1  HC2 HC3 O1  HO1 HC1 C1  HC2 HC3 O1  HO1 HC1 C1  HC2 HC3 
O1  HO1 HC1 C1  HC2 HC3 O1  HO1 HC1 C1  HC2 HC3 O1  HO1 HC1 C1  HC2 HC3 O1  HO1 
HC1 C1  HC2 HC3 O1  HO1 HC1 C1  HC2 HC3 O1  HO1 HC1 C1  HC2 HC3 O1  HO1 HC1 C1  
HC2 HC3 O1  HO1 HC1 C1  HC2 HC3 O1  HO1 HC1 C1  HC2 HC3 O1  HO1 HC1 C1  HC2 HC3 
O1  HO1 HC1 C1  HC2 HC3 O1  HO1 HC1 C1  HC2 HC3 O1  HO1 HC1 C1  HC2 HC3 O1  HO1 
HC1 C1  HC2 HC3 O1  HO1 HC1 C1  HC2 HC3 O1  HO1 HC1 C1  HC2 HC3 O1  HO1 HC1 C1  
HC2 HC3 O1  HO1 HC1 C1  HC2 HC3 O1  HO1 HC1 C1  HC2 HC3 O1  HO1 HC1 C1  HC2 HC3 
O1  HO1 HC1 C1  HC2 HC3 O1  HO1 HC1 C1  HC2 HC3 O1  HO1 HC1 C1  HC2 HC3 O1  HO1 
HC1 C1  HC2 HC3 O1  HO1 HC1 C1  HC2 HC3 O1  HO1 HC1 C1  HC2 HC3 O1  HO1 HC1 C1  
HC2 HC3 O1  HO1 HC1 C1  HC2 HC3 O1  HO1 HC1 C1  HC2 HC3 O1  HO1 HC1 C1  HC2 HC3 
O1  HO1 HC1 C1  HC2 HC3 O1  HO1 HC1 C1  HC2 HC3 O1  HO1 HC1 C1  HC2 HC3 O1  HO1 
HC1 C1  HC2 HC3 O1  HO1 HC1 C1  HC2 HC3 O1  HO1 HC1 C1  HC2 HC3 O1  HO1 HC1 C1  
HC2 HC3 O1  HO1 HC1 C1  HC2 HC3 O1  HO1 HC1 C1  HC2 HC3 O1  HO1 HC1 C1  HC2 HC3 
O1  HO1 HC1 C1  HC2 HC3 O1  HO1 HC1 C1  HC2 HC3 O1  HO1 HC1 C1  HC2 HC3 O1  HO1 
HC1 C1  HC2 HC3 O1  HO1 HC1 C1  HC2 HC3 O1  HO1 HC1 C1  HC2 HC3 O1  HO1 HC1 C1  
HC2 HC3 O1  HO1 HC1 C1  HC2 HC3 O1  HO1 HC1 C1  HC2 HC3 O1  HO1 HC1 C1  HC2 HC3 
O1  HO1 HC1 C1  HC2 HC3 O1  HO1 HC1 C1  HC2 HC3 O1  HO1 HC1 C1  HC2 HC3 O1  HO1 
HC1 C1  HC2 HC3 O1  HO1 HC1 C1  HC2 HC3 O1  HO1 HC1 C1  HC2 HC3 O1  HO1 HC1 C1  
HC2 HC3 O1  HO1 HC1 C1  HC2 HC3 O1  HO1 HC1 C1  HC2 HC3 O1  HO1 HC1 C1  HC2 HC3 
O1  HO1 HC1 C1  HC2 HC3 O1  HO1 HC1 C1  HC2 HC3 O1  HO1 HC1 C1  HC2 HC3 O1  HO1 
HC1 C1  HC2 HC3 O1  HO1 HC1 C1  HC2 HC3 O1  HO1 HC1 C1  HC2 HC3 O1  HO1 HC1 C1  
HC2 HC3 O1  HO1 HC1 C1  HC2 HC3 O1  HO1 HC1 C1  HC2 HC3 O1  HO1 HC1 C1  HC2 HC3 
O1  HO1 HC1 C1  HC2 HC3 O1  HO1 HC1 C1  HC2 HC3 O1  HO1 HC1 C1  HC2 HC3 O1  HO1 
HC1 C1  HC2 HC3 O1  HO1 HC1 C1  HC2 HC3 O1  HO1 HC1 C1  HC2 HC3 O1  HO1 HC1 C1  
HC2 HC3 O1  HO1 HC1 C1  HC2 HC3 O1  HO1 HC1 C1  HC2 HC3 O1  HO1 HC1 C1  HC2 HC3 
O1  HO1 HC1 C1  HC2 HC3 O1  HO1 HC1 C1  HC2 HC3 O1  HO1 HC1 C1  HC2 HC3 O1  HO1 
HC1 C1  HC2 HC3 O1  HO1 HC1 C1  HC2 HC3 O1  HO1 HC1 C1  HC2 HC3 O1  HO1 HC1 C1  
HC2 HC3 O1  HO1 HC1 C1  HC2 HC3 O1  HO1 HC1 C1  HC2 HC3 O1  HO1 HC1 C1  HC2 HC3 
O1  HO1 HC1 C1  HC2 HC3 O1  HO1 HC1 C1  HC2 HC3 O1  HO1 HC1 C1  HC2 HC3 O1  HO1 
HC1 C1  HC2 HC3 O1  HO1 HC1 C1  HC2 HC3 O1  HO1 HC1 C1  HC2 HC3 O1  HO1 HC1 C1  
HC2 HC3 O1  HO1 HC1 C1  HC2 HC3 O1  HO1 HC1 C1  HC2 HC3 O1  HO1 HC1 C1  HC2 HC3 
O1  HO1 HC1 C1  HC2 HC3 O1  HO1 HC1 C1  HC2 HC3 O1  HO1 HC1 C1  HC2 HC3 O1  HO1 
HC1 C1  HC2 HC3 O1  HO1 HC1 C1  HC2 HC3 O1  HO1 HC1 C1  HC2 HC3 O1  HO1 HC1 C1  
HC2 HC3 O1  HO1 HC1 C1  HC2 HC3 O1  HO1 HC1 C1  HC2 HC3 O1  HO1 HC1 C1  HC2 HC3 
O1  HO1 HC1 C1  HC2 HC3 O1  HO1 HC1 C1  HC2 HC3 O1  HO1 HC1 C1  HC2 HC3 O1  HO1 
HC1 C1  HC2 HC3 O1  HO1 HC1 C1  HC2 HC3 O1  HO1 HC1 C1  HC2 HC3 O1  HO1 HC1 C1  
HC2 HC3 O1  HO1 HC1 C1  HC2 HC3 O1  HO1 HC1 C1  HC2 HC3 O1  HO1 HC1 C1  HC2 HC3 
O1  HO1 HC1 C1  HC2 HC3 O1  HO1 HC1 C1  HC2 HC3 O1  HO1 HC1 C1  HC2 HC3 O1  HO1 
HC1 C1  HC2 HC3 O1  HO1 HC1 C1  HC2 HC3 O1  HO1 HC1 C1  HC2 HC3 O1  HO1 HC1 C1  
HC2 HC3 O1  HO1 HC1 C1  HC2 HC3 O1  HO1 HC1 C1  HC2 HC3 O1  HO1 HC1 C1  HC2 HC3 
O1  HO1 HC1 C1  HC2 HC3 O1  HO1 HC1 C1  HC2 HC3 O1  HO1 HC1 C1  HC2 HC3 O1  HO1 
HC1 C1  HC2 HC3 O1  HO1 HC1 C1  HC2 HC3 O1  HO1 HC1 C1  HC2 HC3 O1  HO1 HC1 C1  
HC2 HC3 O1  HO1 HC1 C1  HC2 HC3 O1  HO1 HC1 C1  HC2 HC3 O1  HO1 HC1 C1  HC2 HC3 
O1  HO1 HC1 C1  HC2 HC3 O1  HO1 HC1 C1  HC2 HC3 O1  HO1 HC1 C1  HC2 HC3 O1  HO1 
HC1 C1  HC2 HC3 O1  HO1 HC1 C1  HC2 HC3 O1  HO1 HC1 C1  HC2 HC3 O1  HO1 HC1 C1  
HC2 HC3 O1  HO1 HC1 C1  HC2 HC3 O1  HO1 HC1 C1  HC2 HC3 O1  HO1 HC1 C1  HC2 HC3 
O1  HO1 HC1 C1  HC2 HC3 O1  HO1 HC1 C1  HC2 HC3 O1  HO1 HC1 C1  HC2 HC3 O1  HO1 
HC1 C1  HC2 HC3 O1  HO1 HC1 C1  HC2 HC3 O1  HO1 HC1 C1  HC2 HC3 O1  HO1 HC1 C1  
HC2 HC3 O1  HO1 HC1 C1  HC2 HC3 O1  HO1 HC1 C1  HC2 HC3 O1  HO1 HC1 C1  HC2 HC3 
O1  HO1 HC1 C1  HC2 HC3 O1  HO1 HC1 C1  HC2 HC3 O1  HO1 HC1 C1  HC2 HC3 O1  HO1 
HC1 C1  HC2 HC3 O1  HO1 HC1 C1  HC2 HC3 O1  HO1 HC1 C1  HC2 HC3 O1  HO1 HC1 C1  
HC2 HC3 O1  HO1 HC1 C1  HC2 HC3 O1  HO1 HC1 C1  HC2 HC3 O1  HO1 HC1 C1  HC2 HC3 
O1  HO1 HC1 C1  HC2 HC3 O1  HO1 HC1 C1  HC2 HC3 O1  HO1 HC1 C1  HC2 HC3 O1  HO1 
HC1 C1  HC2 HC3 O1  HO1 HC1 C1  HC2 HC3 O1  HO1 HC1 C1  HC2 HC3 O1  HO1 HC1 C1  
HC2 HC3 O1  HO1 HC1 C1  HC2 HC3 O1  HO1 HC1 C1  HC2 HC3 O1  HO1 HC1 C1  HC2 HC3 
O1  HO1 HC1 C1  HC2 HC3 O1  HO1 HC1 C1  HC2 HC3 O1  HO1 HC1 C1  HC2 HC3 O1  HO1 
HC1 C1  HC2 HC3 O1  HO1 HC1 C1  HC2 HC3 O1  HO1 HC1 C1  HC2 HC3 O1  HO1 HC1 C1  
HC2 HC3 O1  HO1 HC1 C1  HC2 HC3 O1  HO1 HC1 C1  HC2 HC3 O1  HO1 HC1 C1  HC2 HC3 
O1  HO1 HC1 C1  HC2 HC3 O1  HO1 HC1 C1  HC2 HC3 O1  HO1 HC1 C1  HC2 HC3 O1  HO1 
HC1 C1  HC2 HC3 O1  HO1 HC1 C1  HC2 HC3 O1  HO1 HC1 C1  HC2 HC3 O1  HO1 HC1 C1  
HC2 HC3 O1  HO1 HC1 C1  HC2 HC3 O1  HO1 HC1 C1  HC2 HC3 O1  HO1 HC1 C1  HC2 HC3 
O1  HO1 HC1 C1  HC2 HC3 O1  HO1 HC1 C1  HC2 HC3 O1  HO1 HC1 C1  HC2 HC3 O1  HO1 
HC1 C1  HC2 HC3 O1  HO1 HC1 C1  HC2 HC3 O1  HO1 HC1 C1  HC2 HC3 O1  HO1 HC1 C1  
HC2 HC3 O1  HO1 HC1 C1  HC2 HC3 O1  HO1 HC1 C1  HC2 HC3 O1  HO1 HC1 C1  HC2 HC3 
O1  HO1 HC1 C1  HC2 HC3 O1  HO1 HC1 C1  HC2 HC3 O1  HO1 HC1 C1  HC2 HC3 O1  HO1 
HC1 C1  HC2 HC3 O1  HO1 HC1 C1  HC2 HC3 O1  HO1 HC1 C1  HC2 HC3 O1  HO1 HC1 C1  
HC2 HC3 O1  HO1 HC1 C1  HC2 HC3 O1  HO1 HC1 C1  HC2 HC3 O1  HO1 HC1 C1  HC2 HC3 
O1  HO1 HC1 C1  HC2 HC3 O1  HO1 HC1 C1  HC2 HC3 O1  HO1 HC1 C1  HC2 HC3 O1  HO1 
HC1 C1  HC2 HC3 O1  HO1 HC1 C1  HC2 HC3 O1  HO1 HC1 C1  HC2 HC3 O1  HO1 HC1 C1  
HC2 HC3 O1  HO1 HC1 C1  HC2 HC3 O1  HO1 HC1 C1  HC2 HC3 O1  HO1 HC1 C1  HC2 HC3 
O1  HO1 HC1 C1  HC2 HC3 O1  HO1 HC1 C1  HC2 HC3 O1  HO1 HC1 C1  HC2 HC3 O1  HO1 
HC1 C1  HC2 HC3 O1  HO1 HC1 C1  HC2 HC3 O1  HO1 HC1 C1  HC2 HC3 O1  HO1 HC1 C1  
HC2 HC3 O1  HO1 HC1 C1  HC2 HC3 O1  HO1 HC1 C1  HC2 HC3 O1  HO1 HC1 C1  HC2 HC3 
O1  HO1 HC1 C1  HC2 HC3 O1  HO1 HC1 C1  HC2 HC3 O1  HO1 HC1 C1  HC2 HC3 O1  HO1 
HC1 C1  HC2 HC3 O1  HO1 HC1 C1  HC2 HC3 O1  HO1 HC1 C1  HC2 HC3 O1  HO1 HC1 C1  
HC2 HC3 O1  HO1 HC1 C1  HC2 HC3 O1  HO1 HC1 C1  HC2 HC3 O1  HO1 HC1 C1  HC2 HC3 
O1  HO1 HC1 C1  HC2 HC3 O1  HO1 HC1 C1  HC2 HC3 O1  HO1 HC1 C1  HC2 HC3 O1  HO1 
HC1 C1  HC2 HC3 O1  HO1 HC1 C1  HC2 HC3 O1  HO1 HC1 C1  HC2 HC3 O1  HO1 HC1 C1  
HC2 HC3 O1  HO1 HC1 C1  HC2 HC3 O1  HO1 HC1 C1  HC2 HC3 O1  HO1 HC1 C1  HC2 HC3 
O1  HO1 HC1 C1  HC2 HC3 O1  HO1 HC1 C1  HC2 HC3 O1  HO1 HC1 C1  HC2 HC3 O1  HO1 
HC1 C1  HC2 HC3 O1  HO1 HC1 C1  HC2 HC3 O1  HO1 HC1 C1  HC2 HC3 O1  HO1 HC1 C1  
HC2 HC3 O1  HO1 HC1 C1  HC2 HC3 O1  HO1 HC1 C1  HC2 HC3 O1  HO1 HC1 C1  HC2 HC3 
O1  HO1 HC1 C1  HC2 HC3 O1  HO1 HC1 C1  HC2 HC3 O1  HO1 HC1 C1  HC2 HC3 O1  HO1 
HC1 C1  HC2 HC3 O1  HO1 HC1 C1  HC2 HC3 O1  HO1 HC1 C1  HC2 HC3 O1  HO1 HC1 C1  
HC2 HC3 O1  HO1 HC1 C1  HC2 HC3 O1  HO1 HC1 C1  HC2 HC3 O1  HO1 HC1 C1  HC2 HC3 
O1  HO1 HC1 C1  HC2 HC3 O1  HO1 HC1 C1  HC2 HC3 O1  HO1 HC1 C1  HC2 HC3 O1  HO1 
HC1 C1  HC2 HC3 O1  HO1 HC1 C1  HC2 HC3 O1  HO1 HC1 C1  HC2 HC3 O1  HO1 HC1 C1  
HC2 HC3 O1  HO1 HC1 C1  HC2 HC3 O1  HO1 HC1 C1  HC2 HC3 O1  HO1 HC1 C1  HC2 HC3 
O1  HO1 HC1 C1  HC2 HC3 O1  HO1 HC1 C1  HC2 HC3 O1  HO1 HC1 C1  HC2 HC3 O1  HO1 
HC1 C1  HC2 HC3 O1  HO1 HC1 C1  HC2 HC3 O1  HO1 HC1 C1  HC2 HC3 O1  HO1 HC1 C1  
HC2 HC3 O1  HO1 HC1 C1  HC2 HC3 O1  HO1 HC1 C1  HC2 HC3 O1  HO1 HC1 C1  HC2 HC3 
O1  HO1 HC1 C1  HC2 HC3 O1  HO1 HC1 C1  HC2 HC3 O1  HO1 HC1 C1  HC2 HC3 O1  HO1 
HC1 C1  HC2 HC3 O1  HO1 HC1 C1  HC2 HC3 O1  HO1 HC1 C1  HC2 HC3 O1  HO1 HC1 C1  
HC2 HC3 O1  HO1 HC1 C1  HC2 HC3 O1  HO1 HC1 C1  HC2 HC3 O1  HO1 HC1 C1  HC2 HC3 
O1  HO1 HC1 C1  HC2 HC3 O1  HO1 HC1 C1  HC2 HC3 O1  HO1 HC1 C1  HC2 HC3 O1  HO1 
HC1 C1  HC2 HC3 O1  HO1 HC1 C1  HC2 HC3 O1  HO1 HC1 C1  HC2 HC3 O1  HO1 HC1 C1  
HC2 HC3 O1  HO1 HC1 C1  HC2 HC3 O1  HO1 HC1 C1  HC2 HC3 O1  HO1 HC1 C1  HC2 HC3 
O1  HO1 HC1 C1  HC2 HC3 O1  HO1 HC1 C1  HC2 HC3 O1  HO1 HC1 C1  HC2 HC3 O1  HO1 
HC1 C1  HC2 HC3 O1  HO1 HC1 C1  HC2 HC3 O1  HO1 HC1 C1  HC2 HC3 O1  HO1 HC1 C1  
HC2 HC3 O1  HO1 HC1 C1  HC2 HC3 O1  HO1 HC1 C1  HC2 HC3 O1  HO1 HC1 C1  HC2 HC3 
O1  HO1 HC1 C1  HC2 HC3 O1  HO1 HC1 C1  HC2 HC3 O1  HO1 HC1 C1  HC2 HC3 O1  HO1 
HC1 C1  HC2 HC3 O1  HO1 HC1 C1  HC2 HC3 O1  HO1 HC1 C1  HC2 HC3 O1  HO1 HC1 C1  
HC2 HC3 O1  HO1 HC1 C1  HC2 HC3 O1  HO1 HC1 C1  HC2 HC3 O1  HO1 HC1 C1  HC2 HC3 
O1  HO1 HC1 C1  HC2 HC3 O1  HO1 HC1 C1  HC2 HC3 O1  HO1 HC1 C1  HC2 HC3 O1  HO1 
HC1 C1  HC2 HC3 O1  HO1 HC1 C1  HC2 HC3 O1  HO1 HC1 C1  HC2 HC3 O1  HO1 HC1 C1  
HC2 HC3 O1  HO1 HC1 C1  HC2 HC3 O1  HO1 HC1 C1  HC2 HC3 O1  HO1 HC1 C1  HC2 HC3 
O1  HO1 HC1 C1  HC2 HC3 O1  HO1 HC1 C1  HC2 HC3 O1  HO1 HC1 C1  HC2 HC3 O1  HO1 
HC1 C1  HC2 HC3 O1  HO1 HC1 C1  HC2 HC3 O1  HO1 HC1 C1  HC2 HC3 O1  HO1 HC1 C1  
HC2 HC3 O1  HO1 HC1 C1  HC2 HC3 O1  HO1 HC1 C1  HC2 HC3 O1  HO1 HC1 C1  HC2 HC3 
O1  HO1 HC1 C1  HC2 HC3 O1  HO1 HC1 C1  HC2 HC3 O1  HO1 HC1 C1  HC2 HC3 O1  HO1 
HC1 C1  HC2 HC3 O1  HO1 HC1 C1  HC2 HC3 O1  HO1 HC1 C1  HC2 HC3 O1  HO1 HC1 C1  
HC2 HC3 O1  HO1 HC1 C1  HC2 HC3 O1  HO1 HC1 C1  HC2 HC3 O1  HO1 HC1 C1  HC2 HC3 
O1  HO1 HC1 C1  HC2 HC3 O1  HO1 HC1 C1  HC2 HC3 O1  HO1 HC1 C1  HC2 HC3 O1  HO1 
HC1 C1  HC2 HC3 O1  HO1 HC1 C1  HC2 HC3 O1  HO1 HC1 C1  HC2 HC3 O1  HO1 HC1 C1  
HC2 HC3 O1  HO1 HC1 C1  HC2 HC3 O1  HO1 HC1 C1  HC2 HC3 O1  HO1 HC1 C1  HC2 HC3 
O1  HO1 HC1 C1  HC2 HC3 O1  HO1 HC1 C1  HC2 HC3 O1  HO1 HC1 C1  HC2 HC3 O1  HO1 
HC1 C1  HC2 HC3 O1  HO1 HC1 C1  HC2 HC3 O1  HO1 HC1 C1  HC2 HC3 O1  HO1 HC1 C1  
HC2 HC3 O1  HO1 HC1 C1  HC2 HC3 O1  HO1 HC1 C1  HC2 HC3 O1  HO1 HC1 C1  HC2 HC3 
O1  HO1 HC1 C1  HC2 HC3 O1  HO1 HC1 C1  HC2 HC3 O1  HO1 HC1 C1  HC2 HC3 O1  HO1 
HC1 C1  HC2 HC3 O1  HO1 HC1 C1  HC2 HC3 O1  HO1 HC1 C1  HC2 HC3 O1  HO1 HC1 C1  
HC2 HC3 O1  HO1 HC1 C1  HC2 HC3 O1  HO1 HC1 C1  HC2 HC3 O1  HO1 HC1 C1  HC2 HC3 
O1  HO1 HC1 C1  HC2 HC3 O1  HO1 HC1 C1  HC2 HC3 O1  HO1 HC1 C1  HC2 HC3 O1  HO1 
HC1 C1  HC2 HC3 O1  HO1 HC1 C1  HC2 HC3 O1  HO1 HC1 C1  HC2 HC3 O1  HO1 HC1 C1  
HC2 HC3 O1  HO1 HC1 C1  HC2 HC3 O1  HO1 HC1 C1  HC2 HC3 O1  HO1 HC1 C1  HC2 HC3 
O1  HO1 HC1 C1  HC2 HC3 O1  HO1 HC1 C1  HC2 HC3 O1  HO1 HC1 C1  HC2 HC3 O1  HO1 
HC1 C1  HC2 HC3 O1  HO1 HC1 C1  HC2 HC3 O1  HO1 HC1 C1  HC2 HC3 O1  HO1 HC1 C1  
HC2 HC3 O1  HO1 HC1 C1  HC2 HC3 O1  HO1 HC1 C1  HC2 HC3 O1  HO1 HC1 C1  HC2 HC3 
O1  HO1 HC1 C1  HC2 HC3 O1  HO1 HC1 C1  HC2 HC3 O1  HO1 HC1 C1  HC2 HC3 O1  HO1 
HC1 C1  HC2 HC3 O1  HO1 HC1 C1  HC2 HC3 O1  HO1 HC1 C1  HC2 HC3 O1  HO1 HC1 C1  
HC2 HC3 O1  HO1 HC1 C1  HC2 HC3 O1  HO1 HC1 C1  HC2 HC3 O1  HO1 HC1 C1  HC2 HC3 
O1  HO1 HC1 C1  HC2 HC3 O1  HO1 HC1 C1  HC2 HC3 O1  HO1 HC1 C1  HC2 HC3 O1  HO1 
HC1 C1  HC2 HC3 O1  HO1 HC1 C1  HC2 HC3 O1  HO1 HC1 C1  HC2 HC3 O1  HO1 HC1 C1  
HC2 HC3 O1  HO1 HC1 C1  HC2 HC3 O1  HO1 HC1 C1  HC2 HC3 O1  HO1 HC1 C1  HC2 HC3 
O1  HO1 HC1 C1  HC2 HC3 O1  HO1 HC1 C1  HC2 HC3 O1  HO1 HC1 C1  HC2 HC3 O1  HO1 
HC1 C1  HC2 HC3 O1  HO1 HC1 C1  HC2 HC3 O1  HO1 HC1 C1  HC2 HC3 O1  HO1 HC1 C1  
HC2 HC3 O1  HO1 HC1 C1  HC2 HC3 O1  HO1 HC1 C1  HC2 HC3 O1  HO1 HC1 C1  HC2 HC3 
O1  HO1 HC1 C1  HC2 HC3 O1  HO1 HC1 C1  HC2 HC3 O1  HO1 HC1 C1  HC2 HC3 O1  HO1 
HC1 C1  HC2 HC3 O1  HO1 HC1 C1  HC2 HC3 O1  HO1 HC1 C1  HC2 HC3 O1  HO1 HC1 C1  
HC2 HC3 O1  HO1 HC1 C1  HC2 HC3 O1  HO1 HC1 C1  HC2 HC3 O1  HO1 HC1 C1  HC2 HC3 
O1  HO1 HC1 C1  HC2 HC3 O1  HO1 HC1 C1  HC2 HC3 O1  HO1 HC1 C1  HC2 HC3 O1  HO1 
HC1 C1  HC2 HC3 O1  HO1 HC1 C1  HC2 HC3 O1  HO1 HC1 C1  HC2 HC3 O1  HO1 HC1 C1  
HC2 HC3 O1  HO1 HC1 C1  HC2 HC3 O1  HO1 HC1 C1  HC2 HC3 O1  HO1 HC1 C1  HC2 HC3 
O1  HO1 HC1 C1  HC2 HC3 O1  HO1 HC1 C1  HC2 HC3 O1  HO1 HC1 C1  HC2 HC3 O1  HO1 
HC1 C1  HC2 HC3 O1  HO1 HC1 C1  HC2 HC3 O1  HO1 HC1 C1  HC2 HC3 O1  HO1 HC1 C1  
HC2 HC3 O1  HO1 HC1 C1  HC2 HC3 O1  HO1 HC1 C1  HC2 HC3 O1  HO1 HC1 C1  HC2 HC3 
O1  HO1 HC1 C1  HC2 HC3 O1  HO1 HC1 C1  HC2 HC3 O1  HO1 HC1 C1  HC2 HC3 O1  HO1 
HC1 C1  HC2 HC3 O1  HO1 HC1 C1  HC2 HC3 O1  HO1 HC1 C1  HC2 HC3 O1  HO1 HC1 C1  
HC2 HC3 O1  HO1 HC1 C1  HC2 HC3 O1  HO1 HC1 C1  HC2 HC3 O1  HO1 HC1 C1  HC2 HC3 
O1  HO1 HC1 C1  HC2 HC3 O1  HO1 HC1 C1  HC2 HC3 O1  HO1 HC1 C1  HC2 HC3 O1  HO1 
HC1 C1  HC2 HC3 O1  HO1 HC1 C1  HC2 HC3 O1  HO1 HC1 C1  HC2 HC3 O1  HO1 HC1 C1  
HC2 HC3 O1  HO1 HC1 C1  HC2 HC3 O1  HO1 HC1 C1  HC2 HC3 O1  HO1 HC1 C1  HC2 HC3 
O1  HO1 HC1 C1  HC2 HC3 O1  HO1 HC1 C1  HC2 HC3 O1  HO1 HC1 C1  HC2 HC3 O1  HO1 
HC1 C1  HC2 HC3 O1  HO1 HC1 C1  HC2 HC3 O1  HO1 HC1 C1  HC2 HC3 O1  HO1 HC1 C1  
HC2 HC3 O1  HO1 HC1 C1  HC2 HC3 O1  HO1 HC1 C1  HC2 HC3 O1  HO1 HC1 C1  HC2 HC3 
O1  HO1 HC1 C1  HC2 HC3 O1  HO1 HC1 C1  HC2 HC3 O1  HO1 HC1 C1  HC2 HC3 O1  HO1 
HC1 C1  HC2 HC3 O1  HO1 HC1 C1  HC2 HC3 O1  HO1 HC1 C1  HC2 HC3 O1  HO1 HC1 C1  
HC2 HC3 O1  HO1 HC1 C1  HC2 HC3 O1  HO1 HC1 C1  HC2 HC3 O1  HO1 HC1 C1  HC2 HC3 
O1  HO1 HC1 C1  HC2 HC3 O1  HO1 HC1 C1  HC2 HC3 O1  HO1 HC1 C1  HC2 HC3 O1  HO1 
HC1 C1  HC2 HC3 O1  HO1 HC1 C1  HC2 HC3 O1  HO1 HC1 C1  HC2 HC3 O1  HO1 HC1 C1  
HC2 HC3 O1  HO1 HC1 C1  HC2 HC3 O1  HO1 HC1 C1  HC2 HC3 O1  HO1 HC1 C1  HC2 HC3 
O1  HO1 HC1 C1  HC2 HC3 O1  HO1 HC1 C1  HC2 HC3 O1  HO1 HC1 C1  HC2 HC3 O1  HO1 
HC1 C1  HC2 HC3 O1  HO1 HC1 C1  HC2 HC3 O1  HO1 HC1 C1  HC2 HC3 O1  HO1 HC1 C1  
HC2 HC3 O1  HO1 HC1 C1  HC2 HC3 O1  HO1 HC1 C1  HC2 HC3 O1  HO1 HC1 C1  HC2 HC3 
O1  HO1 HC1 C1  HC2 HC3 O1  HO1 HC1 C1  HC2 HC3 O1  HO1 HC1 C1  HC2 HC3 O1  HO1 
HC1 C1  HC2 HC3 O1  HO1 HC1 C1  HC2 HC3 O1  HO1 HC1 C1  HC2 HC3 O1  HO1 HC1 C1  
HC2 HC3 O1  HO1 HC1 C1  HC2 HC3 O1  HO1 HC1 C1  HC2 HC3 O1  HO1 HC1 C1  HC2 HC3 
O1  HO1 HC1 C1  HC2 HC3 O1  HO1 HC1 C1  HC2 HC3 O1  HO1 HC1 C1  HC2 HC3 O1  HO1 
HC1 C1  HC2 HC3 O1  HO1 HC1 C1  HC2 HC3 O1  HO1 HC1 C1  HC2 HC3 O1  HO1 HC1 C1  
HC2 HC3 O1  HO1 HC1 C1  HC2 HC3 O1  HO1 HC1 C1  HC2 HC3 O1  HO1 HC1 C1  HC2 HC3 
O1  HO1 HC1 C1  HC2 HC3 O1  HO1 HC1 C1  HC2 HC3 O1  HO1 HC1 C1  HC2 HC3 O1  HO1 
HC1 C1  HC2 HC3 O1  HO1 HC1 C1  HC2 HC3 O1  HO1 HC1 C1  HC2 HC3 O1  HO1 HC1 C1  
HC2 HC3 O1  HO1 HC1 C1  HC2 HC3 O1  HO1 HC1 C1  HC2 HC3 O1  HO1 HC1 C1  HC2 HC3 
O1  HO1 HC1 C1  HC2 HC3 O1  HO1 HC1 C1  HC2 HC3 O1  HO1 HC1 C1  HC2 HC3 O1  HO1 
HC1 C1  HC2 HC3 O1  HO1 HC1 C1  HC2 HC3 O1  HO1 HC1 C1  HC2 HC3 O1  HO1 HC1 C1  
HC2 HC3 O1  HO1 HC1 C1  HC2 HC3 O1  HO1 HC1 C1  HC2 HC3 O1  HO1 HC1 C1  HC2 HC3 
O1  HO1 HC1 C1  HC2 HC3 O1  HO1 HC1 C1  HC2 HC3 O1  HO1 HC1 C1  HC2 HC3 O1  HO1 
HC1 C1  HC2 HC3 O1  HO1 HC1 C1  HC2 HC3 O1  HO1 HC1 C1  HC2 HC3 O1  HO1 HC1 C1  
HC2 HC3 O1  HO1 HC1 C1  HC2 HC3 O1  HO1 HC1 C1  HC2 HC3 O1  HO1 HC1 C1  HC2 HC3 
O1  HO1 HC1 C1  HC2 HC3 O1  HO1 HC1 C1  HC2 HC3 O1  HO1 HC1 C1  HC2 HC3 O1  HO1 
HC1 C1  HC2 HC3 O1  HO1 HC1 C1  HC2 HC3 O1  HO1 HC1 C1  HC2 HC3 O1  HO1 HC1 C1  
HC2 HC3 O1  HO1 HC1 C1  HC2 HC3 O1  HO1 HC1 C1  HC2 HC3 O1  HO1 HC1 C1  HC2 HC3 
O1  HO1 HC1 C1  HC2 HC3 O1  HO1 HC1 C1  HC2 HC3 O1  HO1 HC1 C1  HC2 HC3 O1  HO1 
HC1 C1  HC2 HC3 O1  HO1 HC1 C1  HC2 HC3 O1  HO1 HC1 C1  HC2 HC3 O1  HO1 HC1 C1  
HC2 HC3 O1  HO1 HC1 C1  HC2 HC3 O1  HO1 HC1 C1  HC2 HC3 O1  HO1 HC1 C1  HC2 HC3 
O1  HO1 HC1 C1  HC2 HC3 O1  HO1 HC1 C1  HC2 HC3 O1  HO1 HC1 C1  HC2 HC3 O1  HO1 
HC1 C1  HC2 HC3 O1  HO1 HC1 C1  HC2 HC3 O1  HO1 HC1 C1  HC2 HC3 O1  HO1 HC1 C1  
HC2 HC3 O1  HO1 HC1 C1  HC2 HC3 O1  HO1 HC1 C1  HC2 HC3 O1  HO1 HC1 C1  HC2 HC3 
O1  HO1 HC1 C1  HC2 HC3 O1  HO1 HC1 C1  HC2 HC3 O1  HO1 HC1 C1  HC2 HC3 O1  HO1 
HC1 C1  HC2 HC3 O1  HO1 HC1 C1  HC2 HC3 O1  HO1 HC1 C1  HC2 HC3 O1  HO1 HC1 C1  
HC2 HC3 O1  HO1 HC1 C1  HC2 HC3 O1  HO1 HC1 C1  HC2 HC3 O1  HO1 HC1 C1  HC2 HC3 
O1  HO1 HC1 C1  HC2 HC3 O1  HO1 HC1 C1  HC2 HC3 O1  HO1 HC1 C1  HC2 HC3 O1  HO1 
HC1 C1  HC2 HC3 O1  HO1 HC1 C1  HC2 HC3 O1  HO1 HC1 C1  HC2 HC3 O1  HO1 HC1 C1  
HC2 HC3 O1  HO1 HC1 C1  HC2 HC3 O1  HO1 HC1 C1  HC2 HC3 O1  HO1 HC1 C1  HC2 HC3 
O1  HO1 HC1 C1  HC2 HC3 O1  HO1 HC1 C1  HC2 HC3 O1  HO1 HC1 C1  HC2 HC3 O1  HO1 
HC1 C1  HC2 HC3 O1  HO1 HC1 C1  HC2 HC3 O1  HO1 HC1 C1  HC2 HC3 O1  HO1 HC1 C1  
HC2 HC3 O1  HO1 HC1 C1  HC2 HC3 O1  HO1 HC1 C1  HC2 HC3 O1  HO1 HC1 C1  HC2 HC3 
O1  HO1 HC1 C1  HC2 HC3 O1  HO1 HC1 C1  HC2 HC3 O1  HO1 HC1 C1  HC2 HC3 O1  HO1 
HC1 C1  HC2 HC3 O1  HO1 HC1 C1  HC2 HC3 O1  HO1 HC1 C1  HC2 HC3 O1  HO1 HC1 C1  
HC2 HC3 O1  HO1 HC1 C1  HC2 HC3 O1  HO1 HC1 C1  HC2 HC3 O1  HO1 HC1 C1  HC2 HC3 
O1  HO1 HC1 C1  HC2 HC3 O1  HO1 HC1 C1  HC2 HC3 O1  HO1 HC1 C1  HC2 HC3 O1  HO1 
HC1 C1  HC2 HC3 O1  HO1 HC1 C1  HC2 HC3 O1  HO1 HC1 C1  HC2 HC3 O1  HO1 HC1 C1  
HC2 HC3 O1  HO1 HC1 C1  HC2 HC3 O1  HO1 HC1 C1  HC2 HC3 O1  HO1 HC1 C1  HC2 HC3 
O1  HO1 HC1 C1  HC2 HC3 O1  HO1 HC1 C1  HC2 HC3 O1  HO1 HC1 C1  HC2 HC3 O1  HO1 
HC1 C1  HC2 HC3 O1  HO1 HC1 C1  HC2 HC3 O1  HO1 HC1 C1  HC2 HC3 O1  HO1 HC1 C1  
HC2 HC3 O1  HO1 HC1 C1  HC2 HC3 O1  HO1 HC1 C1  HC2 HC3 O1  HO1 HC1 C1  HC2 HC3 
O1  HO1 HC1 C1  HC2 HC3 O1  HO1 HC1 C1  HC2 HC3 O1  HO1 HC1 C1  HC2 HC3 O1  HO1 
HC1 C1  HC2 HC3 O1  HO1 HC1 C1  HC2 HC3 O1  HO1 HC1 C1  HC2 HC3 O1  HO1 HC1 C1  
HC2 HC3 O1  HO1 HC1 C1  HC2 HC3 O1  HO1 HC1 C1  HC2 HC3 O1  HO1 HC1 C1  HC2 HC3 
O1  HO1 HC1 C1  HC2 HC3 O1  HO1 HC1 C1  HC2 HC3 O1  HO1 HC1 C1  HC2 HC3 O1  HO1 
HC1 C1  HC2 HC3 O1  HO1 HC1 C1  HC2 HC3 O1  HO1 HC1 C1  HC2 HC3 O1  HO1 HC1 C1  
HC2 HC3 O1  HO1 HC1 C1  HC2 HC3 O1  HO1 HC1 C1  HC2 HC3 O1  HO1 HC1 C1  HC2 HC3 
O1  HO1 HC1 C1  HC2 HC3 O1  HO1 HC1 C1  HC2 HC3 O1  HO1 HC1 C1  HC2 HC3 O1  HO1 
HC1 C1  HC2 HC3 O1  HO1 HC1 C1  HC2 HC3 O1  HO1 HC1 C1  HC2 HC3 O1  HO1 HC1 C1  
HC2 HC3 O1  HO1 HC1 C1  HC2 HC3 O1  HO1 HC1 C1  HC2 HC3 O1  HO1 HC1 C1  HC2 HC3 
O1  HO1 HC1 C1  HC2 HC3 O1  HO1 HC1 C1  HC2 HC3 O1  HO1 HC1 C1  HC2 HC3 O1  HO1 
HC1 C1  HC2 HC3 O1  HO1 HC1 C1  HC2 HC3 O1  HO1 HC1 C1  HC2 HC3 O1  HO1 HC1 C1  
HC2 HC3 O1  HO1 HC1 C1  HC2 HC3 O1  HO1 HC1 C1  HC2 HC3 O1  HO1 HC1 C1  HC2 HC3 
O1  HO1 HC1 C1  HC2 HC3 O1  HO1 HC1 C1  HC2 HC3 O1  HO1 HC1 C1  HC2 HC3 O1  HO1 
HC1 C1  HC2 HC3 O1  HO1 HC1 C1  HC2 HC3 O1  HO1 HC1 C1  HC2 HC3 O1  HO1 HC1 C1  
HC2 HC3 O1  HO1 HC1 C1  HC2 HC3 O1  HO1 HC1 C1  HC2 HC3 O1  HO1 HC1 C1  HC2 HC3 
O1  HO1 HC1 C1  HC2 HC3 O1  HO1 HC1 C1  HC2 HC3 O1  HO1 HC1 C1  HC2 HC3 O1  HO1 
HC1 C1  HC2 HC3 O1  HO1 HC1 C1  HC2 HC3 O1  HO1 HC1 C1  HC2 HC3 O1  HO1 HC1 C1  
HC2 HC3 O1  HO1 HC1 C1  HC2 HC3 O1  HO1 HC1 C1  HC2 HC3 O1  HO1 HC1 C1  HC2 HC3 
O1  HO1 HC1 C1  HC2 HC3 O1  HO1 HC1 C1  HC2 HC3 O1  HO1 HC1 C1  HC2 HC3 O1  HO1 
HC1 C1  HC2 HC3 O1  HO1 HC1 C1  HC2 HC3 O1  HO1 HC1 C1  HC2 HC3 O1  HO1 HC1 C1  
HC2 HC3 O1  HO1 HC1 C1  HC2 HC3 O1  HO1 HC1 C1  HC2 HC3 O1  HO1 HC1 C1  HC2 HC3 
O1  HO1 HC1 C1  HC2 HC3 O1  HO1 HC1 C1  HC2 HC3 O1  HO1 HC1 C1  HC2 HC3 O1  HO1 
HC1 C1  HC2 HC3 O1  HO1 HC1 C1  HC2 HC3 O1  HO1 HC1 C1  HC2 HC3 O1  HO1 HC1 C1  
HC2 HC3 O1  HO1 HC1 C1  HC2 HC3 O1  HO1 HC1 C1  HC2 HC3 O1  HO1 HC1 C1  HC2 HC3 
O1  HO1 HC1 C1  HC2 HC3 O1  HO1 HC1 C1  HC2 HC3 O1  HO1 HC1 C1  HC2 HC3 O1  HO1 
HC1 C1  HC2 HC3 O1  HO1 HC1 C1  HC2 HC3 O1  HO1 HC1 C1  HC2 HC3 O1  HO1 HC1 C1  
HC2 HC3 O1  HO1 HC1 C1  HC2 HC3 O1  HO1 HC1 C1  HC2 HC3 O1  HO1 HC1 C1  HC2 HC3 
O1  HO1 HC1 C1  HC2 HC3 O1  HO1 HC1 C1  HC2 HC3 O1  HO1 HC1 C1  HC2 HC3 O1  HO1 
HC1 C1  HC2 HC3 O1  HO1 HC1 C1  HC2 HC3 O1  HO1 HC1 C1  HC2 HC3 O1  HO1 HC1 C1  
HC2 HC3 O1  HO1 HC1 C1  HC2 HC3 O1  HO1 HC1 C1  HC2 HC3 O1  HO1 HC1 C1  HC2 HC3 
O1  HO1 HC1 C1  HC2 HC3 O1  HO1 HC1 C1  HC2 HC3 O1  HO1 HC1 C1  HC2 HC3 O1  HO1 
HC1 C1  HC2 HC3 O1  HO1 HC1 C1  HC2 HC3 O1  HO1 HC1 C1  HC2 HC3 O1  HO1 HC1 C1  
HC2 HC3 O1  HO1 HC1 C1  HC2 HC3 O1  HO1 HC1 C1  HC2 HC3 O1  HO1 HC1 C1  HC2 HC3 
O1  HO1 HC1 C1  HC2 HC3 O1  HO1 HC1 C1  HC2 HC3 O1  HO1 HC1 C1  HC2 HC3 O1  HO1 
HC1 C1  HC2 HC3 O1  HO1 HC1 C1  HC2 HC3 O1  HO1 HC1 C1  HC2 HC3 O1  HO1 HC1 C1  
HC2 HC3 O1  HO1 HC1 C1  HC2 HC3 O1  HO1 HC1 C1  HC2 HC3 O1  HO1 HC1 C1  HC2 HC3 
O1  HO1 HC1 C1  HC2 HC3 O1  HO1 HC1 C1  HC2 HC3 O1  HO1 HC1 C1  HC2 HC3 O1  HO1 
HC1 C1  HC2 HC3 O1  HO1 HC1 C1  HC2 HC3 O1  HO1 HC1 C1  HC2 HC3 O1  HO1 HC1 C1  
HC2 HC3 O1  HO1 HC1 C1  HC2 HC3 O1  HO1 HC1 C1  HC2 HC3 O1  HO1 HC1 C1  HC2 HC3 
O1  HO1 HC1 C1  HC2 HC3 O1  HO1 HC1 C1  HC2 HC3 O1  HO1 HC1 C1  HC2 HC3 O1  HO1 
HC1 C1  HC2 HC3 O1  HO1 HC1 C1  HC2 HC3 O1  HO1 HC1 C1  HC2 HC3 O1  HO1 HC1 C1  
HC2 HC3 O1  HO1 HC1 C1  HC2 HC3 O1  HO1 HC1 C1  HC2 HC3 O1  HO1 HC1 C1  HC2 HC3 
O1  HO1 HC1 C1  HC2 HC3 O1  HO1 HC1 C1  HC2 HC3 O1  HO1 HC1 C1  HC2 HC3 O1  HO1 
HC1 C1  HC2 HC3 O1  HO1 HC1 C1  HC2 HC3 O1  HO1 
%FLAG CHARGE                                                                    
%FORMAT(5E16.8)                                                                 
 -5.33366721E+00  4.69042002E+00 -8.34216894E+00  4.80339828E+00  1.33441903E+01
 -1.03028884E+01 -2.07734220E-01  1.03138218E+00  1.03138218E+00 -8.50981410E-01
  3.48045930E-01  3.48045930E-01  3.48045930E-01  9.88013106E+00 -9.40088457E+00
 -5.82202485E+00 -1.06418232E+00  1.23547194E+00  1.23547194E+00  1.23547194E+00
 -2.95201260E-01  1.04413779E+00  1.04413779E+00  1.01698656E+01 -9.82728639E+00
 -4.42984113E+00 -1.34480574E+00  1.19356065E+00  1.19356065E+00  1.19356065E+00
  1.45778400E-01  8.38225800E-01 -1.31018337E+00  5.37557850E-01  5.37557850E-01
  4.26766266E+00 -4.50090810E-01 -3.92143896E+00  8.54625870E-01  8.54625870E-01
  8.54625870E-01 -3.92143896E+00  8.54625870E-01  8.54625870E-01  8.54625870E-01
 -6.97914090E+00  4.54646385E+00  5.10224400E-02  5.52135690E-01  8.53532532E+00
 -9.95302026E+00  6.37233831E+00 -1.30107222E+00 -3.82121631E+00  7.78092210E-01
  7.78092210E-01  7.78092210E-01 -3.82121631E+00  7.78092210E-01  7.78092210E-01
  7.78092210E-01  9.33710652E+00 -9.61590771E+00 -2.33609886E+00 -1.26644985E+00
  1.07511570E+00  1.07511570E+00  1.07511570E+00  5.10224400E-02  9.60315210E-01
 -2.29054311E+00  9.62137440E-01  9.62137440E-01  2.90827908E+00  3.18890250E-01
 -3.08867985E+00  6.85158480E-01  6.85158480E-01  6.85158480E-01 -3.08867985E+00
  6.85158480E-01  6.85158480E-01  6.85158480E-01 -8.04878991E+00  5.39015634E+00
  1.24093863E+00  1.07876016E+00 -2.82081204E+00  9.89470890E-01  9.89470890E-01
  9.89470890E-01  1.03466219E+01 -1.01552878E+01  1.02974217E+01 -1.02518660E+01
 -7.54403220E+00  4.90726539E+00  1.62907362E+00  7.48936530E-01 -2.30147649E+00
  8.38225800E-01  8.38225800E-01  8.38225800E-01  6.05709252E+00 -8.96719383E+00
 -5.25895578E+00  1.31929452E+00  5.75824680E-01  5.75824680E-01  5.75824680E-01
  1.16987166E+00  1.52885097E+00 -1.77120756E+00  9.51204060E-01  9.51204060E-01
  1.43591724E+00  3.09779100E-01 -2.05000875E+00  5.02935480E-01  5.02935480E-01
  5.02935480E-01 -2.05000875E+00  5.02935480E-01  5.02935480E-01  5.02935480E-01
  9.86555322E+00 -9.82364193E+00 -2.15023140E+00 -8.89248240E-01  1.05689340E+00
  1.05689340E+00  1.05689340E+00 -4.44624120E-01  9.96759810E-01 -1.81676331E+00
  7.12491930E-01  7.12491930E-01  4.92002100E+00 -5.12046630E-01 -3.71006028E+00
  7.17958620E-01  7.17958620E-01  7.17958620E-01 -3.71006028E+00  7.17958620E-01
  7.17958620E-01  7.17958620E-01  8.79408198E+00 -9.07470540E+00 -1.74387411E+00
 -6.39602730E-01  8.10892350E-01  8.10892350E-01  8.10892350E-01  1.27556100E-02
  1.71654066E+00  5.02935480E-01  1.27920546E+00 -9.89288667E+00  6.68393964E+00
 -5.82566931E+00  3.15974682E+00 -1.35391689E+00  2.15387586E+00 -2.64952242E+00
  9.85826430E-01  9.85826430E-01  9.85826430E-01 -6.25024890E-01  8.41870260E-01
  8.41870260E-01  2.30876541E+00  3.02490180E-01 -3.12512445E+00  7.98136740E-01
  7.98136740E-01  7.98136740E-01  6.73131762E+00 -9.03461634E+00 -4.52095263E+00
 -1.98805293E+00  1.24458309E+00  1.24458309E+00  1.24458309E+00  7.19780850E-01
  1.63089585E+00  3.91597227E+00 -5.64891300E-02 -4.15650663E+00  9.54848520E-01
  9.54848520E-01  9.54848520E-01 -4.15650663E+00  9.54848520E-01  9.54848520E-01
  9.54848520E-01  6.77869560E-01  2.12472018E+00  6.77869560E-01  6.77869560E-01
 -1.18390283E+01  7.68069945E+00  6.77869560E-01  2.12472018E+00  6.77869560E-01
  6.77869560E-01 -1.18390283E+01  7.68069945E+00  6.77869560E-01  2.12472018E+00
  6.77869560E-01  6.77869560E-01 -1.18390283E+01  7.68069945E+00  6.77869560E-01
  2.12472018E+00  6.77869560E-01  6.77869560E-01 -1.18390283E+01  7.68069945E+00
  6.77869560E-01  2.12472018E+00  6.77869560E-01  6.77869560E-01 -1.18390283E+01
  7.68069945E+00  6.77869560E-01  2.12472018E+00  6.77869560E-01  6.77869560E-01
 -1.18390283E+01  7.68069945E+00  6.77869560E-01  2.12472018E+00  6.77869560E-01
  6.77869560E-01 -1.18390283E+01  7.68069945E+00  6.77869560E-01  2.12472018E+00
  6.77869560E-01  6.77869560E-01 -1.18390283E+01  7.68069945E+00  6.77869560E-01
  2.12472018E+00  6.77869560E-01  6.77869560E-01 -1.18390283E+01  7.68069945E+00
  6.77869560E-01  2.12472018E+00  6.77869560E-01  6.77869560E-01 -1.18390283E+01
  7.68069945E+00  6.77869560E-01  2.12472018E+00  6.77869560E-01  6.77869560E-01
 -1.18390283E+01  7.68069945E+00  6.77869560E-01  2.12472018E+00  6.77869560E-01
  6.77869560E-01 -1.18390283E+01  7.68069945E+00  6.77869560E-01  2.12472018E+00
  6.77869560E-01  6.77869560E-01 -1.18390283E+01  7.68069945E+00  6.77869560E-01
  2.12472018E+00  6.77869560E-01  6.77869560E-01 -1.18390283E+01  7.68069945E+00
  6.77869560E-01  2.12472018E+00  6.77869560E-01  6.77869560E-01 -1.18390283E+01
  7.68069945E+00  6.77869560E-01  2.12472018E+00  6.77869560E-01  6.77869560E-01
 -1.18390283E+01  7.68069945E+00  6.77869560E-01  2.12472018E+00  6.77869560E-01
  6.77869560E-01 -1.18390283E+01  7.68069945E+00  6.77869560E-01  2.12472018E+00
  6.77869560E-01  6.77869560E-01 -1.18390283E+01  7.68069945E+00  6.77869560E-01
  2.12472018E+00  6.77869560E-01  6.77869560E-01 -1.18390283E+01  7.68069945E+00
  6.77869560E-01  2.12472018E+00  6.77869560E-01  6.77869560E-01 -1.18390283E+01
  7.68069945E+00  6.77869560E-01  2.12472018E+00  6.77869560E-01  6.77869560E-01
 -1.18390283E+01  7.68069945E+00  6.77869560E-01  2.12472018E+00  6.77869560E-01
  6.77869560E-01 -1.18390283E+01  7.68069945E+00  6.77869560E-01  2.12472018E+00
  6.77869560E-01  6.77869560E-01 -1.18390283E+01  7.68069945E+00  6.77869560E-01
  2.12472018E+00  6.77869560E-01  6.77869560E-01 -1.18390283E+01  7.68069945E+00
  6.77869560E-01  2.12472018E+00  6.77869560E-01  6.77869560E-01 -1.18390283E+01
  7.68069945E+00  6.77869560E-01  2.12472018E+00  6.77869560E-01  6.77869560E-01
 -1.18390283E+01  7.68069945E+00  6.77869560E-01  2.12472018E+00  6.77869560E-01
  6.77869560E-01 -1.18390283E+01  7.68069945E+00  6.77869560E-01  2.12472018E+00
  6.77869560E-01  6.77869560E-01 -1.18390283E+01  7.68069945E+00  6.77869560E-01
  2.12472018E+00  6.77869560E-01  6.77869560E-01 -1.18390283E+01  7.68069945E+00
  6.77869560E-01  2.12472018E+00  6.77869560E-01  6.77869560E-01 -1.18390283E+01
  7.68069945E+00  6.77869560E-01  2.12472018E+00  6.77869560E-01  6.77869560E-01
 -1.18390283E+01  7.68069945E+00  6.77869560E-01  2.12472018E+00  6.77869560E-01
  6.77869560E-01 -1.18390283E+01  7.68069945E+00  6.77869560E-01  2.12472018E+00
  6.77869560E-01  6.77869560E-01 -1.18390283E+01  7.68069945E+00  6.77869560E-01
  2.12472018E+00  6.77869560E-01  6.77869560E-01 -1.18390283E+01  7.68069945E+00
  6.77869560E-01  2.12472018E+00  6.77869560E-01  6.77869560E-01 -1.18390283E+01
  7.68069945E+00  6.77869560E-01  2.12472018E+00  6.77869560E-01  6.77869560E-01
 -1.18390283E+01  7.68069945E+00  6.77869560E-01  2.12472018E+00  6.77869560E-01
  6.77869560E-01 -1.18390283E+01  7.68069945E+00  6.77869560E-01  2.12472018E+00
  6.77869560E-01  6.77869560E-01 -1.18390283E+01  7.68069945E+00  6.77869560E-01
  2.12472018E+00  6.77869560E-01  6.77869560E-01 -1.18390283E+01  7.68069945E+00
  6.77869560E-01  2.12472018E+00  6.77869560E-01  6.77869560E-01 -1.18390283E+01
  7.68069945E+00  6.77869560E-01  2.12472018E+00  6.77869560E-01  6.77869560E-01
 -1.18390283E+01  7.68069945E+00  6.77869560E-01  2.12472018E+00  6.77869560E-01
  6.77869560E-01 -1.18390283E+01  7.68069945E+00  6.77869560E-01  2.12472018E+00
  6.77869560E-01  6.77869560E-01 -1.18390283E+01  7.68069945E+00  6.77869560E-01
  2.12472018E+00  6.77869560E-01  6.77869560E-01 -1.18390283E+01  7.68069945E+00
  6.77869560E-01  2.12472018E+00  6.77869560E-01  6.77869560E-01 -1.18390283E+01
  7.68069945E+00  6.77869560E-01  2.12472018E+00  6.77869560E-01  6.77869560E-01
 -1.18390283E+01  7.68069945E+00  6.77869560E-01  2.12472018E+00  6.77869560E-01
  6.77869560E-01 -1.18390283E+01  7.68069945E+00  6.77869560E-01  2.12472018E+00
  6.77869560E-01  6.77869560E-01 -1.18390283E+01  7.68069945E+00  6.77869560E-01
  2.12472018E+00  6.77869560E-01  6.77869560E-01 -1.18390283E+01  7.68069945E+00
  6.77869560E-01  2.12472018E+00  6.77869560E-01  6.77869560E-01 -1.18390283E+01
  7.68069945E+00  6.77869560E-01  2.12472018E+00  6.77869560E-01  6.77869560E-01
 -1.18390283E+01  7.68069945E+00  6.77869560E-01  2.12472018E+00  6.77869560E-01
  6.77869560E-01 -1.18390283E+01  7.68069945E+00  6.77869560E-01  2.12472018E+00
  6.77869560E-01  6.77869560E-01 -1.18390283E+01  7.68069945E+00  6.77869560E-01
  2.12472018E+00  6.77869560E-01  6.77869560E-01 -1.18390283E+01  7.68069945E+00
  6.77869560E-01  2.12472018E+00  6.77869560E-01  6.77869560E-01 -1.18390283E+01
  7.68069945E+00  6.77869560E-01  2.12472018E+00  6.77869560E-01  6.77869560E-01
 -1.18390283E+01  7.68069945E+00  6.77869560E-01  2.12472018E+00  6.77869560E-01
  6.77869560E-01 -1.18390283E+01  7.68069945E+00  6.77869560E-01  2.12472018E+00
  6.77869560E-01  6.77869560E-01 -1.18390283E+01  7.68069945E+00  6.77869560E-01
  2.12472018E+00  6.77869560E-01  6.77869560E-01 -1.18390283E+01  7.68069945E+00
  6.77869560E-01  2.12472018E+00  6.77869560E-01  6.77869560E-01 -1.18390283E+01
  7.68069945E+00  6.77869560E-01  2.12472018E+00  6.77869560E-01  6.77869560E-01
 -1.18390283E+01  7.68069945E+00  6.77869560E-01  2.12472018E+00  6.77869560E-01
  6.77869560E-01 -1.18390283E+01  7.68069945E+00  6.77869560E-01  2.12472018E+00
  6.77869560E-01  6.77869560E-01 -1.18390283E+01  7.68069945E+00  6.77869560E-01
  2.12472018E+00  6.77869560E-01  6.77869560E-01 -1.18390283E+01  7.68069945E+00
  6.77869560E-01  2.12472018E+00  6.77869560E-01  6.77869560E-01 -1.18390283E+01
  7.68069945E+00  6.77869560E-01  2.12472018E+00  6.77869560E-01  6.77869560E-01
 -1.18390283E+01  7.68069945E+00  6.77869560E-01  2.12472018E+00  6.77869560E-01
  6.77869560E-01 -1.18390283E+01  7.68069945E+00  6.77869560E-01  2.12472018E+00
  6.77869560E-01  6.77869560E-01 -1.18390283E+01  7.68069945E+00  6.77869560E-01
  2.12472018E+00  6.77869560E-01  6.77869560E-01 -1.18390283E+01  7.68069945E+00
  6.77869560E-01  2.12472018E+00  6.77869560E-01  6.77869560E-01 -1.18390283E+01
  7.68069945E+00  6.77869560E-01  2.12472018E+00  6.77869560E-01  6.77869560E-01
 -1.18390283E+01  7.68069945E+00  6.77869560E-01  2.12472018E+00  6.77869560E-01
  6.77869560E-01 -1.18390283E+01  7.68069945E+00  6.77869560E-01  2.12472018E+00
  6.77869560E-01  6.77869560E-01 -1.18390283E+01  7.68069945E+00  6.77869560E-01
  2.12472018E+00  6.77869560E-01  6.77869560E-01 -1.18390283E+01  7.68069945E+00
  6.77869560E-01  2.12472018E+00  6.77869560E-01  6.77869560E-01 -1.18390283E+01
  7.68069945E+00  6.77869560E-01  2.12472018E+00  6.77869560E-01  6.77869560E-01
 -1.18390283E+01  7.68069945E+00  6.77869560E-01  2.12472018E+00  6.77869560E-01
  6.77869560E-01 -1.18390283E+01  7.68069945E+00  6.77869560E-01  2.12472018E+00
  6.77869560E-01  6.77869560E-01 -1.18390283E+01  7.68069945E+00  6.77869560E-01
  2.12472018E+00  6.77869560E-01  6.77869560E-01 -1.18390283E+01  7.68069945E+00
  6.77869560E-01  2.12472018E+00  6.77869560E-01  6.77869560E-01 -1.18390283E+01
  7.68069945E+00  6.77869560E-01  2.12472018E+00  6.77869560E-01  6.77869560E-01
 -1.18390283E+01  7.68069945E+00  6.77869560E-01  2.12472018E+00  6.77869560E-01
  6.77869560E-01 -1.18390283E+01  7.68069945E+00  6.77869560E-01  2.12472018E+00
  6.77869560E-01  6.77869560E-01 -1.18390283E+01  7.68069945E+00  6.77869560E-01
  2.12472018E+00  6.77869560E-01  6.77869560E-01 -1.18390283E+01  7.68069945E+00
  6.77869560E-01  2.12472018E+00  6.77869560E-01  6.77869560E-01 -1.18390283E+01
  7.68069945E+00  6.77869560E-01  2.12472018E+00  6.77869560E-01  6.77869560E-01
 -1.18390283E+01  7.68069945E+00  6.77869560E-01  2.12472018E+00  6.77869560E-01
  6.77869560E-01 -1.18390283E+01  7.68069945E+00  6.77869560E-01  2.12472018E+00
  6.77869560E-01  6.77869560E-01 -1.18390283E+01  7.68069945E+00  6.77869560E-01
  2.12472018E+00  6.77869560E-01  6.77869560E-01 -1.18390283E+01  7.68069945E+00
  6.77869560E-01  2.12472018E+00  6.77869560E-01  6.77869560E-01 -1.18390283E+01
  7.68069945E+00  6.77869560E-01  2.12472018E+00  6.77869560E-01  6.77869560E-01
 -1.18390283E+01  7.68069945E+00  6.77869560E-01  2.12472018E+00  6.77869560E-01
  6.77869560E-01 -1.18390283E+01  7.68069945E+00  6.77869560E-01  2.12472018E+00
  6.77869560E-01  6.77869560E-01 -1.18390283E+01  7.68069945E+00  6.77869560E-01
  2.12472018E+00  6.77869560E-01  6.77869560E-01 -1.18390283E+01  7.68069945E+00
  6.77869560E-01  2.12472018E+00  6.77869560E-01  6.77869560E-01 -1.18390283E+01
  7.68069945E+00  6.77869560E-01  2.12472018E+00  6.77869560E-01  6.77869560E-01
 -1.18390283E+01  7.68069945E+00  6.77869560E-01  2.12472018E+00  6.77869560E-01
  6.77869560E-01 -1.18390283E+01  7.68069945E+00  6.77869560E-01  2.12472018E+00
  6.77869560E-01  6.77869560E-01 -1.18390283E+01  7.68069945E+00  6.77869560E-01
  2.12472018E+00  6.77869560E-01  6.77869560E-01 -1.18390283E+01  7.68069945E+00
  6.77869560E-01  2.12472018E+00  6.77869560E-01  6.77869560E-01 -1.18390283E+01
  7.68069945E+00  6.77869560E-01  2.12472018E+00  6.77869560E-01  6.77869560E-01
 -1.18390283E+01  7.68069945E+00  6.77869560E-01  2.12472018E+00  6.77869560E-01
  6.77869560E-01 -1.18390283E+01  7.68069945E+00  6.77869560E-01  2.12472018E+00
  6.77869560E-01  6.77869560E-01 -1.18390283E+01  7.68069945E+00  6.77869560E-01
  2.12472018E+00  6.77869560E-01  6.77869560E-01 -1.18390283E+01  7.68069945E+00
  6.77869560E-01  2.12472018E+00  6.77869560E-01  6.77869560E-01 -1.18390283E+01
  7.68069945E+00  6.77869560E-01  2.12472018E+00  6.77869560E-01  6.77869560E-01
 -1.18390283E+01  7.68069945E+00  6.77869560E-01  2.12472018E+00  6.77869560E-01
  6.77869560E-01 -1.18390283E+01  7.68069945E+00  6.77869560E-01  2.12472018E+00
  6.77869560E-01  6.77869560E-01 -1.18390283E+01  7.68069945E+00  6.77869560E-01
  2.12472018E+00  6.77869560E-01  6.77869560E-01 -1.18390283E+01  7.68069945E+00
  6.77869560E-01  2.12472018E+00  6.77869560E-01  6.77869560E-01 -1.18390283E+01
  7.68069945E+00  6.77869560E-01  2.12472018E+00  6.77869560E-01  6.77869560E-01
 -1.18390283E+01  7.68069945E+00  6.77869560E-01  2.12472018E+00  6.77869560E-01
  6.77869560E-01 -1.18390283E+01  7.68069945E+00  6.77869560E-01  2.12472018E+00
  6.77869560E-01  6.77869560E-01 -1.18390283E+01  7.68069945E+00  6.77869560E-01
  2.12472018E+00  6.77869560E-01  6.77869560E-01 -1.18390283E+01  7.68069945E+00
  6.77869560E-01  2.12472018E+00  6.77869560E-01  6.77869560E-01 -1.18390283E+01
  7.68069945E+00  6.77869560E-01  2.12472018E+00  6.77869560E-01  6.77869560E-01
 -1.18390283E+01  7.68069945E+00  6.77869560E-01  2.12472018E+00  6.77869560E-01
  6.77869560E-01 -1.18390283E+01  7.68069945E+00  6.77869560E-01  2.12472018E+00
  6.77869560E-01  6.77869560E-01 -1.18390283E+01  7.68069945E+00  6.77869560E-01
  2.12472018E+00  6.77869560E-01  6.77869560E-01 -1.18390283E+01  7.68069945E+00
  6.77869560E-01  2.12472018E+00  6.77869560E-01  6.77869560E-01 -1.18390283E+01
  7.68069945E+00  6.77869560E-01  2.12472018E+00  6.77869560E-01  6.77869560E-01
 -1.18390283E+01  7.68069945E+00  6.77869560E-01  2.12472018E+00  6.77869560E-01
  6.77869560E-01 -1.18390283E+01  7.68069945E+00  6.77869560E-01  2.12472018E+00
  6.77869560E-01  6.77869560E-01 -1.18390283E+01  7.68069945E+00  6.77869560E-01
  2.12472018E+00  6.77869560E-01  6.77869560E-01 -1.18390283E+01  7.68069945E+00
  6.77869560E-01  2.12472018E+00  6.77869560E-01  6.77869560E-01 -1.18390283E+01
  7.68069945E+00  6.77869560E-01  2.12472018E+00  6.77869560E-01  6.77869560E-01
 -1.18390283E+01  7.68069945E+00  6.77869560E-01  2.12472018E+00  6.77869560E-01
  6.77869560E-01 -1.18390283E+01  7.68069945E+00  6.77869560E-01  2.12472018E+00
  6.77869560E-01  6.77869560E-01 -1.18390283E+01  7.68069945E+00  6.77869560E-01
  2.12472018E+00  6.77869560E-01  6.77869560E-01 -1.18390283E+01  7.68069945E+00
  6.77869560E-01  2.12472018E+00  6.77869560E-01  6.77869560E-01 -1.18390283E+01
  7.68069945E+00  6.77869560E-01  2.12472018E+00  6.77869560E-01  6.77869560E-01
 -1.18390283E+01  7.68069945E+00  6.77869560E-01  2.12472018E+00  6.77869560E-01
  6.77869560E-01 -1.18390283E+01  7.68069945E+00  6.77869560E-01  2.12472018E+00
  6.77869560E-01  6.77869560E-01 -1.18390283E+01  7.68069945E+00  6.77869560E-01
  2.12472018E+00  6.77869560E-01  6.77869560E-01 -1.18390283E+01  7.68069945E+00
  6.77869560E-01  2.12472018E+00  6.77869560E-01  6.77869560E-01 -1.18390283E+01
  7.68069945E+00  6.77869560E-01  2.12472018E+00  6.77869560E-01  6.77869560E-01
 -1.18390283E+01  7.68069945E+00  6.77869560E-01  2.12472018E+00  6.77869560E-01
  6.77869560E-01 -1.18390283E+01  7.68069945E+00  6.77869560E-01  2.12472018E+00
  6.77869560E-01  6.77869560E-01 -1.18390283E+01  7.68069945E+00  6.77869560E-01
  2.12472018E+00  6.77869560E-01  6.77869560E-01 -1.18390283E+01  7.68069945E+00
  6.77869560E-01  2.12472018E+00  6.77869560E-01  6.77869560E-01 -1.18390283E+01
  7.68069945E+00  6.77869560E-01  2.12472018E+00  6.77869560E-01  6.77869560E-01
 -1.18390283E+01  7.68069945E+00  6.77869560E-01  2.12472018E+00  6.77869560E-01
  6.77869560E-01 -1.18390283E+01  7.68069945E+00  6.77869560E-01  2.12472018E+00
  6.77869560E-01  6.77869560E-01 -1.18390283E+01  7.68069945E+00  6.77869560E-01
  2.12472018E+00  6.77869560E-01  6.77869560E-01 -1.18390283E+01  7.68069945E+00
  6.77869560E-01  2.12472018E+00  6.77869560E-01  6.77869560E-01 -1.18390283E+01
  7.68069945E+00  6.77869560E-01  2.12472018E+00  6.77869560E-01  6.77869560E-01
 -1.18390283E+01  7.68069945E+00  6.77869560E-01  2.12472018E+00  6.77869560E-01
  6.77869560E-01 -1.18390283E+01  7.68069945E+00  6.77869560E-01  2.12472018E+00
  6.77869560E-01  6.77869560E-01 -1.18390283E+01  7.68069945E+00  6.77869560E-01
  2.12472018E+00  6.77869560E-01  6.77869560E-01 -1.18390283E+01  7.68069945E+00
  6.77869560E-01  2.12472018E+00  6.77869560E-01  6.77869560E-01 -1.18390283E+01
  7.68069945E+00  6.77869560E-01  2.12472018E+00  6.77869560E-01  6.77869560E-01
 -1.18390283E+01  7.68069945E+00  6.77869560E-01  2.12472018E+00  6.77869560E-01
  6.77869560E-01 -1.18390283E+01  7.68069945E+00  6.77869560E-01  2.12472018E+00
  6.77869560E-01  6.77869560E-01 -1.18390283E+01  7.68069945E+00  6.77869560E-01
  2.12472018E+00  6.77869560E-01  6.77869560E-01 -1.18390283E+01  7.68069945E+00
  6.77869560E-01  2.12472018E+00  6.77869560E-01  6.77869560E-01 -1.18390283E+01
  7.68069945E+00  6.77869560E-01  2.12472018E+00  6.77869560E-01  6.77869560E-01
 -1.18390283E+01  7.68069945E+00  6.77869560E-01  2.12472018E+00  6.77869560E-01
  6.77869560E-01 -1.18390283E+01  7.68069945E+00  6.77869560E-01  2.12472018E+00
  6.77869560E-01  6.77869560E-01 -1.18390283E+01  7.68069945E+00  6.77869560E-01
  2.12472018E+00  6.77869560E-01  6.77869560E-01 -1.18390283E+01  7.68069945E+00
  6.77869560E-01  2.12472018E+00  6.77869560E-01  6.77869560E-01 -1.18390283E+01
  7.68069945E+00  6.77869560E-01  2.12472018E+00  6.77869560E-01  6.77869560E-01
 -1.18390283E+01  7.68069945E+00  6.77869560E-01  2.12472018E+00  6.77869560E-01
  6.77869560E-01 -1.18390283E+01  7.68069945E+00  6.77869560E-01  2.12472018E+00
  6.77869560E-01  6.77869560E-01 -1.18390283E+01  7.68069945E+00  6.77869560E-01
  2.12472018E+00  6.77869560E-01  6.77869560E-01 -1.18390283E+01  7.68069945E+00
  6.77869560E-01  2.12472018E+00  6.77869560E-01  6.77869560E-01 -1.18390283E+01
  7.68069945E+00  6.77869560E-01  2.12472018E+00  6.77869560E-01  6.77869560E-01
 -1.18390283E+01  7.68069945E+00  6.77869560E-01  2.12472018E+00  6.77869560E-01
  6.77869560E-01 -1.18390283E+01  7.68069945E+00  6.77869560E-01  2.12472018E+00
  6.77869560E-01  6.77869560E-01 -1.18390283E+01  7.68069945E+00  6.77869560E-01
  2.12472018E+00  6.77869560E-01  6.77869560E-01 -1.18390283E+01  7.68069945E+00
  6.77869560E-01  2.12472018E+00  6.77869560E-01  6.77869560E-01 -1.18390283E+01
  7.68069945E+00  6.77869560E-01  2.12472018E+00  6.77869560E-01  6.77869560E-01
 -1.18390283E+01  7.68069945E+00  6.77869560E-01  2.12472018E+00  6.77869560E-01
  6.77869560E-01 -1.18390283E+01  7.68069945E+00  6.77869560E-01  2.12472018E+00
  6.77869560E-01  6.77869560E-01 -1.18390283E+01  7.68069945E+00  6.77869560E-01
  2.12472018E+00  6.77869560E-01  6.77869560E-01 -1.18390283E+01  7.68069945E+00
  6.77869560E-01  2.12472018E+00  6.77869560E-01  6.77869560E-01 -1.18390283E+01
  7.68069945E+00  6.77869560E-01  2.12472018E+00  6.77869560E-01  6.77869560E-01
 -1.18390283E+01  7.68069945E+00  6.77869560E-01  2.12472018E+00  6.77869560E-01
  6.77869560E-01 -1.18390283E+01  7.68069945E+00  6.77869560E-01  2.12472018E+00
  6.77869560E-01  6.77869560E-01 -1.18390283E+01  7.68069945E+00  6.77869560E-01
  2.12472018E+00  6.77869560E-01  6.77869560E-01 -1.18390283E+01  7.68069945E+00
  6.77869560E-01  2.12472018E+00  6.77869560E-01  6.77869560E-01 -1.18390283E+01
  7.68069945E+00  6.77869560E-01  2.12472018E+00  6.77869560E-01  6.77869560E-01
 -1.18390283E+01  7.68069945E+00  6.77869560E-01  2.12472018E+00  6.77869560E-01
  6.77869560E-01 -1.18390283E+01  7.68069945E+00  6.77869560E-01  2.12472018E+00
  6.77869560E-01  6.77869560E-01 -1.18390283E+01  7.68069945E+00  6.77869560E-01
  2.12472018E+00  6.77869560E-01  6.77869560E-01 -1.18390283E+01  7.68069945E+00
  6.77869560E-01  2.12472018E+00  6.77869560E-01  6.77869560E-01 -1.18390283E+01
  7.68069945E+00  6.77869560E-01  2.12472018E+00  6.77869560E-01  6.77869560E-01
 -1.18390283E+01  7.68069945E+00  6.77869560E-01  2.12472018E+00  6.77869560E-01
  6.77869560E-01 -1.18390283E+01  7.68069945E+00  6.77869560E-01  2.12472018E+00
  6.77869560E-01  6.77869560E-01 -1.18390283E+01  7.68069945E+00  6.77869560E-01
  2.12472018E+00  6.77869560E-01  6.77869560E-01 -1.18390283E+01  7.68069945E+00
  6.77869560E-01  2.12472018E+00  6.77869560E-01  6.77869560E-01 -1.18390283E+01
  7.68069945E+00  6.77869560E-01  2.12472018E+00  6.77869560E-01  6.77869560E-01
 -1.18390283E+01  7.68069945E+00  6.77869560E-01  2.12472018E+00  6.77869560E-01
  6.77869560E-01 -1.18390283E+01  7.68069945E+00  6.77869560E-01  2.12472018E+00
  6.77869560E-01  6.77869560E-01 -1.18390283E+01  7.68069945E+00  6.77869560E-01
  2.12472018E+00  6.77869560E-01  6.77869560E-01 -1.18390283E+01  7.68069945E+00
  6.77869560E-01  2.12472018E+00  6.77869560E-01  6.77869560E-01 -1.18390283E+01
  7.68069945E+00  6.77869560E-01  2.12472018E+00  6.77869560E-01  6.77869560E-01
 -1.18390283E+01  7.68069945E+00  6.77869560E-01  2.12472018E+00  6.77869560E-01
  6.77869560E-01 -1.18390283E+01  7.68069945E+00  6.77869560E-01  2.12472018E+00
  6.77869560E-01  6.77869560E-01 -1.18390283E+01  7.68069945E+00  6.77869560E-01
  2.12472018E+00  6.77869560E-01  6.77869560E-01 -1.18390283E+01  7.68069945E+00
  6.77869560E-01  2.12472018E+00  6.77869560E-01  6.77869560E-01 -1.18390283E+01
  7.68069945E+00  6.77869560E-01  2.12472018E+00  6.77869560E-01  6.77869560E-01
 -1.18390283E+01  7.68069945E+00  6.77869560E-01  2.12472018E+00  6.77869560E-01
  6.77869560E-01 -1.18390283E+01  7.68069945E+00  6.77869560E-01  2.12472018E+00
  6.77869560E-01  6.77869560E-01 -1.18390283E+01  7.68069945E+00  6.77869560E-01
  2.12472018E+00  6.77869560E-01  6.77869560E-01 -1.18390283E+01  7.68069945E+00
  6.77869560E-01  2.12472018E+00  6.77869560E-01  6.77869560E-01 -1.18390283E+01
  7.68069945E+00  6.77869560E-01  2.12472018E+00  6.77869560E-01  6.77869560E-01
 -1.18390283E+01  7.68069945E+00  6.77869560E-01  2.12472018E+00  6.77869560E-01
  6.77869560E-01 -1.18390283E+01  7.68069945E+00  6.77869560E-01  2.12472018E+00
  6.77869560E-01  6.77869560E-01 -1.18390283E+01  7.68069945E+00  6.77869560E-01
  2.12472018E+00  6.77869560E-01  6.77869560E-01 -1.18390283E+01  7.68069945E+00
  6.77869560E-01  2.12472018E+00  6.77869560E-01  6.77869560E-01 -1.18390283E+01
  7.68069945E+00  6.77869560E-01  2.12472018E+00  6.77869560E-01  6.77869560E-01
 -1.18390283E+01  7.68069945E+00  6.77869560E-01  2.12472018E+00  6.77869560E-01
  6.77869560E-01 -1.18390283E+01  7.68069945E+00  6.77869560E-01  2.12472018E+00
  6.77869560E-01  6.77869560E-01 -1.18390283E+01  7.68069945E+00  6.77869560E-01
  2.12472018E+00  6.77869560E-01  6.77869560E-01 -1.18390283E+01  7.68069945E+00
  6.77869560E-01  2.12472018E+00  6.77869560E-01  6.77869560E-01 -1.18390283E+01
  7.68069945E+00  6.77869560E-01  2.12472018E+00  6.77869560E-01  6.77869560E-01
 -1.18390283E+01  7.68069945E+00  6.77869560E-01  2.12472018E+00  6.77869560E-01
  6.77869560E-01 -1.18390283E+01  7.68069945E+00  6.77869560E-01  2.12472018E+00
  6.77869560E-01  6.77869560E-01 -1.18390283E+01  7.68069945E+00  6.77869560E-01
  2.12472018E+00  6.77869560E-01  6.77869560E-01 -1.18390283E+01  7.68069945E+00
  6.77869560E-01  2.12472018E+00  6.77869560E-01  6.77869560E-01 -1.18390283E+01
  7.68069945E+00  6.77869560E-01  2.12472018E+00  6.77869560E-01  6.77869560E-01
 -1.18390283E+01  7.68069945E+00  6.77869560E-01  2.12472018E+00  6.77869560E-01
  6.77869560E-01 -1.18390283E+01  7.68069945E+00  6.77869560E-01  2.12472018E+00
  6.77869560E-01  6.77869560E-01 -1.18390283E+01  7.68069945E+00  6.77869560E-01
  2.12472018E+00  6.77869560E-01  6.77869560E-01 -1.18390283E+01  7.68069945E+00
  6.77869560E-01  2.12472018E+00  6.77869560E-01  6.77869560E-01 -1.18390283E+01
  7.68069945E+00  6.77869560E-01  2.12472018E+00  6.77869560E-01  6.77869560E-01
 -1.18390283E+01  7.68069945E+00  6.77869560E-01  2.12472018E+00  6.77869560E-01
  6.77869560E-01 -1.18390283E+01  7.68069945E+00  6.77869560E-01  2.12472018E+00
  6.77869560E-01  6.77869560E-01 -1.18390283E+01  7.68069945E+00  6.77869560E-01
  2.12472018E+00  6.77869560E-01  6.77869560E-01 -1.18390283E+01  7.68069945E+00
  6.77869560E-01  2.12472018E+00  6.77869560E-01  6.77869560E-01 -1.18390283E+01
  7.68069945E+00  6.77869560E-01  2.12472018E+00  6.77869560E-01  6.77869560E-01
 -1.18390283E+01  7.68069945E+00  6.77869560E-01  2.12472018E+00  6.77869560E-01
  6.77869560E-01 -1.18390283E+01  7.68069945E+00  6.77869560E-01  2.12472018E+00
  6.77869560E-01  6.77869560E-01 -1.18390283E+01  7.68069945E+00  6.77869560E-01
  2.12472018E+00  6.77869560E-01  6.77869560E-01 -1.18390283E+01  7.68069945E+00
  6.77869560E-01  2.12472018E+00  6.77869560E-01  6.77869560E-01 -1.18390283E+01
  7.68069945E+00  6.77869560E-01  2.12472018E+00  6.77869560E-01  6.77869560E-01
 -1.18390283E+01  7.68069945E+00  6.77869560E-01  2.12472018E+00  6.77869560E-01
  6.77869560E-01 -1.18390283E+01  7.68069945E+00  6.77869560E-01  2.12472018E+00
  6.77869560E-01  6.77869560E-01 -1.18390283E+01  7.68069945E+00  6.77869560E-01
  2.12472018E+00  6.77869560E-01  6.77869560E-01 -1.18390283E+01  7.68069945E+00
  6.77869560E-01  2.12472018E+00  6.77869560E-01  6.77869560E-01 -1.18390283E+01
  7.68069945E+00  6.77869560E-01  2.12472018E+00  6.77869560E-01  6.77869560E-01
 -1.18390283E+01  7.68069945E+00  6.77869560E-01  2.12472018E+00  6.77869560E-01
  6.77869560E-01 -1.18390283E+01  7.68069945E+00  6.77869560E-01  2.12472018E+00
  6.77869560E-01  6.77869560E-01 -1.18390283E+01  7.68069945E+00  6.77869560E-01
  2.12472018E+00  6.77869560E-01  6.77869560E-01 -1.18390283E+01  7.68069945E+00
  6.77869560E-01  2.12472018E+00  6.77869560E-01  6.77869560E-01 -1.18390283E+01
  7.68069945E+00  6.77869560E-01  2.12472018E+00  6.77869560E-01  6.77869560E-01
 -1.18390283E+01  7.68069945E+00  6.77869560E-01  2.12472018E+00  6.77869560E-01
  6.77869560E-01 -1.18390283E+01  7.68069945E+00  6.77869560E-01  2.12472018E+00
  6.77869560E-01  6.77869560E-01 -1.18390283E+01  7.68069945E+00  6.77869560E-01
  2.12472018E+00  6.77869560E-01  6.77869560E-01 -1.18390283E+01  7.68069945E+00
  6.77869560E-01  2.12472018E+00  6.77869560E-01  6.77869560E-01 -1.18390283E+01
  7.68069945E+00  6.77869560E-01  2.12472018E+00  6.77869560E-01  6.77869560E-01
 -1.18390283E+01  7.68069945E+00  6.77869560E-01  2.12472018E+00  6.77869560E-01
  6.77869560E-01 -1.18390283E+01  7.68069945E+00  6.77869560E-01  2.12472018E+00
  6.77869560E-01  6.77869560E-01 -1.18390283E+01  7.68069945E+00  6.77869560E-01
  2.12472018E+00  6.77869560E-01  6.77869560E-01 -1.18390283E+01  7.68069945E+00
  6.77869560E-01  2.12472018E+00  6.77869560E-01  6.77869560E-01 -1.18390283E+01
  7.68069945E+00  6.77869560E-01  2.12472018E+00  6.77869560E-01  6.77869560E-01
 -1.18390283E+01  7.68069945E+00  6.77869560E-01  2.12472018E+00  6.77869560E-01
  6.77869560E-01 -1.18390283E+01  7.68069945E+00  6.77869560E-01  2.12472018E+00
  6.77869560E-01  6.77869560E-01 -1.18390283E+01  7.68069945E+00  6.77869560E-01
  2.12472018E+00  6.77869560E-01  6.77869560E-01 -1.18390283E+01  7.68069945E+00
  6.77869560E-01  2.12472018E+00  6.77869560E-01  6.77869560E-01 -1.18390283E+01
  7.68069945E+00  6.77869560E-01  2.12472018E+00  6.77869560E-01  6.77869560E-01
 -1.18390283E+01  7.68069945E+00  6.77869560E-01  2.12472018E+00  6.77869560E-01
  6.77869560E-01 -1.18390283E+01  7.68069945E+00  6.77869560E-01  2.12472018E+00
  6.77869560E-01  6.77869560E-01 -1.18390283E+01  7.68069945E+00  6.77869560E-01
  2.12472018E+00  6.77869560E-01  6.77869560E-01 -1.18390283E+01  7.68069945E+00
  6.77869560E-01  2.12472018E+00  6.77869560E-01  6.77869560E-01 -1.18390283E+01
  7.68069945E+00  6.77869560E-01  2.12472018E+00  6.77869560E-01  6.77869560E-01
 -1.18390283E+01  7.68069945E+00  6.77869560E-01  2.12472018E+00  6.77869560E-01
  6.77869560E-01 -1.18390283E+01  7.68069945E+00  6.77869560E-01  2.12472018E+00
  6.77869560E-01  6.77869560E-01 -1.18390283E+01  7.68069945E+00  6.77869560E-01
  2.12472018E+00  6.77869560E-01  6.77869560E-01 -1.18390283E+01  7.68069945E+00
  6.77869560E-01  2.12472018E+00  6.77869560E-01  6.77869560E-01 -1.18390283E+01
  7.68069945E+00  6.77869560E-01  2.12472018E+00  6.77869560E-01  6.77869560E-01
 -1.18390283E+01  7.68069945E+00  6.77869560E-01  2.12472018E+00  6.77869560E-01
  6.77869560E-01 -1.18390283E+01  7.68069945E+00  6.77869560E-01  2.12472018E+00
  6.77869560E-01  6.77869560E-01 -1.18390283E+01  7.68069945E+00  6.77869560E-01
  2.12472018E+00  6.77869560E-01  6.77869560E-01 -1.18390283E+01  7.68069945E+00
  6.77869560E-01  2.12472018E+00  6.77869560E-01  6.77869560E-01 -1.18390283E+01
  7.68069945E+00  6.77869560E-01  2.12472018E+00  6.77869560E-01  6.77869560E-01
 -1.18390283E+01  7.68069945E+00  6.77869560E-01  2.12472018E+00  6.77869560E-01
  6.77869560E-01 -1.18390283E+01  7.68069945E+00  6.77869560E-01  2.12472018E+00
  6.77869560E-01  6.77869560E-01 -1.18390283E+01  7.68069945E+00  6.77869560E-01
  2.12472018E+00  6.77869560E-01  6.77869560E-01 -1.18390283E+01  7.68069945E+00
  6.77869560E-01  2.12472018E+00  6.77869560E-01  6.77869560E-01 -1.18390283E+01
  7.68069945E+00  6.77869560E-01  2.12472018E+00  6.77869560E-01  6.77869560E-01
 -1.18390283E+01  7.68069945E+00  6.77869560E-01  2.12472018E+00  6.77869560E-01
  6.77869560E-01 -1.18390283E+01  7.68069945E+00  6.77869560E-01  2.12472018E+00
  6.77869560E-01  6.77869560E-01 -1.18390283E+01  7.68069945E+00  6.77869560E-01
  2.12472018E+00  6.77869560E-01  6.77869560E-01 -1.18390283E+01  7.68069945E+00
  6.77869560E-01  2.12472018E+00  6.77869560E-01  6.77869560E-01 -1.18390283E+01
  7.68069945E+00  6.77869560E-01  2.12472018E+00  6.77869560E-01  6.77869560E-01
 -1.18390283E+01  7.68069945E+00  6.77869560E-01  2.12472018E+00  6.77869560E-01
  6.77869560E-01 -1.18390283E+01  7.68069945E+00  6.77869560E-01  2.12472018E+00
  6.77869560E-01  6.77869560E-01 -1.18390283E+01  7.68069945E+00  6.77869560E-01
  2.12472018E+00  6.77869560E-01  6.77869560E-01 -1.18390283E+01  7.68069945E+00
  6.77869560E-01  2.12472018E+00  6.77869560E-01  6.77869560E-01 -1.18390283E+01
  7.68069945E+00  6.77869560E-01  2.12472018E+00  6.77869560E-01  6.77869560E-01
 -1.18390283E+01  7.68069945E+00  6.77869560E-01  2.12472018E+00  6.77869560E-01
  6.77869560E-01 -1.18390283E+01  7.68069945E+00  6.77869560E-01  2.12472018E+00
  6.77869560E-01  6.77869560E-01 -1.18390283E+01  7.68069945E+00  6.77869560E-01
  2.12472018E+00  6.77869560E-01  6.77869560E-01 -1.18390283E+01  7.68069945E+00
  6.77869560E-01  2.12472018E+00  6.77869560E-01  6.77869560E-01 -1.18390283E+01
  7.68069945E+00  6.77869560E-01  2.12472018E+00  6.77869560E-01  6.77869560E-01
 -1.18390283E+01  7.68069945E+00  6.77869560E-01  2.12472018E+00  6.77869560E-01
  6.77869560E-01 -1.18390283E+01  7.68069945E+00  6.77869560E-01  2.12472018E+00
  6.77869560E-01  6.77869560E-01 -1.18390283E+01  7.68069945E+00  6.77869560E-01
  2.12472018E+00  6.77869560E-01  6.77869560E-01 -1.18390283E+01  7.68069945E+00
  6.77869560E-01  2.12472018E+00  6.77869560E-01  6.77869560E-01 -1.18390283E+01
  7.68069945E+00  6.77869560E-01  2.12472018E+00  6.77869560E-01  6.77869560E-01
 -1.18390283E+01  7.68069945E+00  6.77869560E-01  2.12472018E+00  6.77869560E-01
  6.77869560E-01 -1.18390283E+01  7.68069945E+00  6.77869560E-01  2.12472018E+00
  6.77869560E-01  6.77869560E-01 -1.18390283E+01  7.68069945E+00  6.77869560E-01
  2.12472018E+00  6.77869560E-01  6.77869560E-01 -1.18390283E+01  7.68069945E+00
  6.77869560E-01  2.12472018E+00  6.77869560E-01  6.77869560E-01 -1.18390283E+01
  7.68069945E+00  6.77869560E-01  2.12472018E+00  6.77869560E-01  6.77869560E-01
 -1.18390283E+01  7.68069945E+00  6.77869560E-01  2.12472018E+00  6.77869560E-01
  6.77869560E-01 -1.18390283E+01  7.68069945E+00  6.77869560E-01  2.12472018E+00
  6.77869560E-01  6.77869560E-01 -1.18390283E+01  7.68069945E+00  6.77869560E-01
  2.12472018E+00  6.77869560E-01  6.77869560E-01 -1.18390283E+01  7.68069945E+00
  6.77869560E-01  2.12472018E+00  6.77869560E-01  6.77869560E-01 -1.18390283E+01
  7.68069945E+00  6.77869560E-01  2.12472018E+00  6.77869560E-01  6.77869560E-01
 -1.18390283E+01  7.68069945E+00  6.77869560E-01  2.12472018E+00  6.77869560E-01
  6.77869560E-01 -1.18390283E+01  7.68069945E+00  6.77869560E-01  2.12472018E+00
  6.77869560E-01  6.77869560E-01 -1.18390283E+01  7.68069945E+00  6.77869560E-01
  2.12472018E+00  6.77869560E-01  6.77869560E-01 -1.18390283E+01  7.68069945E+00
  6.77869560E-01  2.12472018E+00  6.77869560E-01  6.77869560E-01 -1.18390283E+01
  7.68069945E+00  6.77869560E-01  2.12472018E+00  6.77869560E-01  6.77869560E-01
 -1.18390283E+01  7.68069945E+00  6.77869560E-01  2.12472018E+00  6.77869560E-01
  6.77869560E-01 -1.18390283E+01  7.68069945E+00  6.77869560E-01  2.12472018E+00
  6.77869560E-01  6.77869560E-01 -1.18390283E+01  7.68069945E+00  6.77869560E-01
  2.12472018E+00  6.77869560E-01  6.77869560E-01 -1.18390283E+01  7.68069945E+00
  6.77869560E-01  2.12472018E+00  6.77869560E-01  6.77869560E-01 -1.18390283E+01
  7.68069945E+00  6.77869560E-01  2.12472018E+00  6.77869560E-01  6.77869560E-01
 -1.18390283E+01  7.68069945E+00  6.77869560E-01  2.12472018E+00  6.77869560E-01
  6.77869560E-01 -1.18390283E+01  7.68069945E+00  6.77869560E-01  2.12472018E+00
  6.77869560E-01  6.77869560E-01 -1.18390283E+01  7.68069945E+00  6.77869560E-01
  2.12472018E+00  6.77869560E-01  6.77869560E-01 -1.18390283E+01  7.68069945E+00
  6.77869560E-01  2.12472018E+00  6.77869560E-01  6.77869560E-01 -1.18390283E+01
  7.68069945E+00  6.77869560E-01  2.12472018E+00  6.77869560E-01  6.77869560E-01
 -1.18390283E+01  7.68069945E+00  6.77869560E-01  2.12472018E+00  6.77869560E-01
  6.77869560E-01 -1.18390283E+01  7.68069945E+00  6.77869560E-01  2.12472018E+00
  6.77869560E-01  6.77869560E-01 -1.18390283E+01  7.68069945E+00  6.77869560E-01
  2.12472018E+00  6.77869560E-01  6.77869560E-01 -1.18390283E+01  7.68069945E+00
  6.77869560E-01  2.12472018E+00  6.77869560E-01  6.77869560E-01 -1.18390283E+01
  7.68069945E+00  6.77869560E-01  2.12472018E+00  6.77869560E-01  6.77869560E-01
 -1.18390283E+01  7.68069945E+00  6.77869560E-01  2.12472018E+00  6.77869560E-01
  6.77869560E-01 -1.18390283E+01  7.68069945E+00  6.77869560E-01  2.12472018E+00
  6.77869560E-01  6.77869560E-01 -1.18390283E+01  7.68069945E+00  6.77869560E-01
  2.12472018E+00  6.77869560E-01  6.77869560E-01 -1.18390283E+01  7.68069945E+00
  6.77869560E-01  2.12472018E+00  6.77869560E-01  6.77869560E-01 -1.18390283E+01
  7.68069945E+00  6.77869560E-01  2.12472018E+00  6.77869560E-01  6.77869560E-01
 -1.18390283E+01  7.68069945E+00  6.77869560E-01  2.12472018E+00  6.77869560E-01
  6.77869560E-01 -1.18390283E+01  7.68069945E+00  6.77869560E-01  2.12472018E+00
  6.77869560E-01  6.77869560E-01 -1.18390283E+01  7.68069945E+00  6.77869560E-01
  2.12472018E+00  6.77869560E-01  6.77869560E-01 -1.18390283E+01  7.68069945E+00
  6.77869560E-01  2.12472018E+00  6.77869560E-01  6.77869560E-01 -1.18390283E+01
  7.68069945E+00  6.77869560E-01  2.12472018E+00  6.77869560E-01  6.77869560E-01
 -1.18390283E+01  7.68069945E+00  6.77869560E-01  2.12472018E+00  6.77869560E-01
  6.77869560E-01 -1.18390283E+01  7.68069945E+00  6.77869560E-01  2.12472018E+00
  6.77869560E-01  6.77869560E-01 -1.18390283E+01  7.68069945E+00  6.77869560E-01
  2.12472018E+00  6.77869560E-01  6.77869560E-01 -1.18390283E+01  7.68069945E+00
  6.77869560E-01  2.12472018E+00  6.77869560E-01  6.77869560E-01 -1.18390283E+01
  7.68069945E+00  6.77869560E-01  2.12472018E+00  6.77869560E-01  6.77869560E-01
 -1.18390283E+01  7.68069945E+00  6.77869560E-01  2.12472018E+00  6.77869560E-01
  6.77869560E-01 -1.18390283E+01  7.68069945E+00  6.77869560E-01  2.12472018E+00
  6.77869560E-01  6.77869560E-01 -1.18390283E+01  7.68069945E+00  6.77869560E-01
  2.12472018E+00  6.77869560E-01  6.77869560E-01 -1.18390283E+01  7.68069945E+00
  6.77869560E-01  2.12472018E+00  6.77869560E-01  6.77869560E-01 -1.18390283E+01
  7.68069945E+00  6.77869560E-01  2.12472018E+00  6.77869560E-01  6.77869560E-01
 -1.18390283E+01  7.68069945E+00  6.77869560E-01  2.12472018E+00  6.77869560E-01
  6.77869560E-01 -1.18390283E+01  7.68069945E+00  6.77869560E-01  2.12472018E+00
  6.77869560E-01  6.77869560E-01 -1.18390283E+01  7.68069945E+00  6.77869560E-01
  2.12472018E+00  6.77869560E-01  6.77869560E-01 -1.18390283E+01  7.68069945E+00
  6.77869560E-01  2.12472018E+00  6.77869560E-01  6.77869560E-01 -1.18390283E+01
  7.68069945E+00  6.77869560E-01  2.12472018E+00  6.77869560E-01  6.77869560E-01
 -1.18390283E+01  7.68069945E+00  6.77869560E-01  2.12472018E+00  6.77869560E-01
  6.77869560E-01 -1.18390283E+01  7.68069945E+00  6.77869560E-01  2.12472018E+00
  6.77869560E-01  6.77869560E-01 -1.18390283E+01  7.68069945E+00  6.77869560E-01
  2.12472018E+00  6.77869560E-01  6.77869560E-01 -1.18390283E+01  7.68069945E+00
  6.77869560E-01  2.12472018E+00  6.77869560E-01  6.77869560E-01 -1.18390283E+01
  7.68069945E+00  6.77869560E-01  2.12472018E+00  6.77869560E-01  6.77869560E-01
 -1.18390283E+01  7.68069945E+00  6.77869560E-01  2.12472018E+00  6.77869560E-01
  6.77869560E-01 -1.18390283E+01  7.68069945E+00  6.77869560E-01  2.12472018E+00
  6.77869560E-01  6.77869560E-01 -1.18390283E+01  7.68069945E+00  6.77869560E-01
  2.12472018E+00  6.77869560E-01  6.77869560E-01 -1.18390283E+01  7.68069945E+00
  6.77869560E-01  2.12472018E+00  6.77869560E-01  6.77869560E-01 -1.18390283E+01
  7.68069945E+00  6.77869560E-01  2.12472018E+00  6.77869560E-01  6.77869560E-01
 -1.18390283E+01  7.68069945E+00  6.77869560E-01  2.12472018E+00  6.77869560E-01
  6.77869560E-01 -1.18390283E+01  7.68069945E+00  6.77869560E-01  2.12472018E+00
  6.77869560E-01  6.77869560E-01 -1.18390283E+01  7.68069945E+00  6.77869560E-01
  2.12472018E+00  6.77869560E-01  6.77869560E-01 -1.18390283E+01  7.68069945E+00
  6.77869560E-01  2.12472018E+00  6.77869560E-01  6.77869560E-01 -1.18390283E+01
  7.68069945E+00  6.77869560E-01  2.12472018E+00  6.77869560E-01  6.77869560E-01
 -1.18390283E+01  7.68069945E+00  6.77869560E-01  2.12472018E+00  6.77869560E-01
  6.77869560E-01 -1.18390283E+01  7.68069945E+00  6.77869560E-01  2.12472018E+00
  6.77869560E-01  6.77869560E-01 -1.18390283E+01  7.68069945E+00  6.77869560E-01
  2.12472018E+00  6.77869560E-01  6.77869560E-01 -1.18390283E+01  7.68069945E+00
  6.77869560E-01  2.12472018E+00  6.77869560E-01  6.77869560E-01 -1.18390283E+01
  7.68069945E+00  6.77869560E-01  2.12472018E+00  6.77869560E-01  6.77869560E-01
 -1.18390283E+01  7.68069945E+00  6.77869560E-01  2.12472018E+00  6.77869560E-01
  6.77869560E-01 -1.18390283E+01  7.68069945E+00  6.77869560E-01  2.12472018E+00
  6.77869560E-01  6.77869560E-01 -1.18390283E+01  7.68069945E+00  6.77869560E-01
  2.12472018E+00  6.77869560E-01  6.77869560E-01 -1.18390283E+01  7.68069945E+00
  6.77869560E-01  2.12472018E+00  6.77869560E-01  6.77869560E-01 -1.18390283E+01
  7.68069945E+00  6.77869560E-01  2.12472018E+00  6.77869560E-01  6.77869560E-01
 -1.18390283E+01  7.68069945E+00  6.77869560E-01  2.12472018E+00  6.77869560E-01
  6.77869560E-01 -1.18390283E+01  7.68069945E+00  6.77869560E-01  2.12472018E+00
  6.77869560E-01  6.77869560E-01 -1.18390283E+01  7.68069945E+00  6.77869560E-01
  2.12472018E+00  6.77869560E-01  6.77869560E-01 -1.18390283E+01  7.68069945E+00
  6.77869560E-01  2.12472018E+00  6.77869560E-01  6.77869560E-01 -1.18390283E+01
  7.68069945E+00  6.77869560E-01  2.12472018E+00  6.77869560E-01  6.77869560E-01
 -1.18390283E+01  7.68069945E+00  6.77869560E-01  2.12472018E+00  6.77869560E-01
  6.77869560E-01 -1.18390283E+01  7.68069945E+00  6.77869560E-01  2.12472018E+00
  6.77869560E-01  6.77869560E-01 -1.18390283E+01  7.68069945E+00  6.77869560E-01
  2.12472018E+00  6.77869560E-01  6.77869560E-01 -1.18390283E+01  7.68069945E+00
  6.77869560E-01  2.12472018E+00  6.77869560E-01  6.77869560E-01 -1.18390283E+01
  7.68069945E+00  6.77869560E-01  2.12472018E+00  6.77869560E-01  6.77869560E-01
 -1.18390283E+01  7.68069945E+00  6.77869560E-01  2.12472018E+00  6.77869560E-01
  6.77869560E-01 -1.18390283E+01  7.68069945E+00  6.77869560E-01  2.12472018E+00
  6.77869560E-01  6.77869560E-01 -1.18390283E+01  7.68069945E+00  6.77869560E-01
  2.12472018E+00  6.77869560E-01  6.77869560E-01 -1.18390283E+01  7.68069945E+00
  6.77869560E-01  2.12472018E+00  6.77869560E-01  6.77869560E-01 -1.18390283E+01
  7.68069945E+00  6.77869560E-01  2.12472018E+00  6.77869560E-01  6.77869560E-01
 -1.18390283E+01  7.68069945E+00  6.77869560E-01  2.12472018E+00  6.77869560E-01
  6.77869560E-01 -1.18390283E+01  7.68069945E+00  6.77869560E-01  2.12472018E+00
  6.77869560E-01  6.77869560E-01 -1.18390283E+01  7.68069945E+00  6.77869560E-01
  2.12472018E+00  6.77869560E-01  6.77869560E-01 -1.18390283E+01  7.68069945E+00
  6.77869560E-01  2.12472018E+00  6.77869560E-01  6.77869560E-01 -1.18390283E+01
  7.68069945E+00  6.77869560E-01  2.12472018E+00  6.77869560E-01  6.77869560E-01
 -1.18390283E+01  7.68069945E+00  6.77869560E-01  2.12472018E+00  6.77869560E-01
  6.77869560E-01 -1.18390283E+01  7.68069945E+00  6.77869560E-01  2.12472018E+00
  6.77869560E-01  6.77869560E-01 -1.18390283E+01  7.68069945E+00  6.77869560E-01
  2.12472018E+00  6.77869560E-01  6.77869560E-01 -1.18390283E+01  7.68069945E+00
  6.77869560E-01  2.12472018E+00  6.77869560E-01  6.77869560E-01 -1.18390283E+01
  7.68069945E+00  6.77869560E-01  2.12472018E+00  6.77869560E-01  6.77869560E-01
 -1.18390283E+01  7.68069945E+00  6.77869560E-01  2.12472018E+00  6.77869560E-01
  6.77869560E-01 -1.18390283E+01  7.68069945E+00  6.77869560E-01  2.12472018E+00
  6.77869560E-01  6.77869560E-01 -1.18390283E+01  7.68069945E+00  6.77869560E-01
  2.12472018E+00  6.77869560E-01  6.77869560E-01 -1.18390283E+01  7.68069945E+00
  6.77869560E-01  2.12472018E+00  6.77869560E-01  6.77869560E-01 -1.18390283E+01
  7.68069945E+00  6.77869560E-01  2.12472018E+00  6.77869560E-01  6.77869560E-01
 -1.18390283E+01  7.68069945E+00  6.77869560E-01  2.12472018E+00  6.77869560E-01
  6.77869560E-01 -1.18390283E+01  7.68069945E+00  6.77869560E-01  2.12472018E+00
  6.77869560E-01  6.77869560E-01 -1.18390283E+01  7.68069945E+00  6.77869560E-01
  2.12472018E+00  6.77869560E-01  6.77869560E-01 -1.18390283E+01  7.68069945E+00
  6.77869560E-01  2.12472018E+00  6.77869560E-01  6.77869560E-01 -1.18390283E+01
  7.68069945E+00  6.77869560E-01  2.12472018E+00  6.77869560E-01  6.77869560E-01
 -1.18390283E+01  7.68069945E+00  6.77869560E-01  2.12472018E+00  6.77869560E-01
  6.77869560E-01 -1.18390283E+01  7.68069945E+00  6.77869560E-01  2.12472018E+00
  6.77869560E-01  6.77869560E-01 -1.18390283E+01  7.68069945E+00  6.77869560E-01
  2.12472018E+00  6.77869560E-01  6.77869560E-01 -1.18390283E+01  7.68069945E+00
  6.77869560E-01  2.12472018E+00  6.77869560E-01  6.77869560E-01 -1.18390283E+01
  7.68069945E+00  6.77869560E-01  2.12472018E+00  6.77869560E-01  6.77869560E-01
 -1.18390283E+01  7.68069945E+00  6.77869560E-01  2.12472018E+00  6.77869560E-01
  6.77869560E-01 -1.18390283E+01  7.68069945E+00  6.77869560E-01  2.12472018E+00
  6.77869560E-01  6.77869560E-01 -1.18390283E+01  7.68069945E+00  6.77869560E-01
  2.12472018E+00  6.77869560E-01  6.77869560E-01 -1.18390283E+01  7.68069945E+00
  6.77869560E-01  2.12472018E+00  6.77869560E-01  6.77869560E-01 -1.18390283E+01
  7.68069945E+00  6.77869560E-01  2.12472018E+00  6.77869560E-01  6.77869560E-01
 -1.18390283E+01  7.68069945E+00  6.77869560E-01  2.12472018E+00  6.77869560E-01
  6.77869560E-01 -1.18390283E+01  7.68069945E+00  6.77869560E-01  2.12472018E+00
  6.77869560E-01  6.77869560E-01 -1.18390283E+01  7.68069945E+00  6.77869560E-01
  2.12472018E+00  6.77869560E-01  6.77869560E-01 -1.18390283E+01  7.68069945E+00
  6.77869560E-01  2.12472018E+00  6.77869560E-01  6.77869560E-01 -1.18390283E+01
  7.68069945E+00  6.77869560E-01  2.12472018E+00  6.77869560E-01  6.77869560E-01
 -1.18390283E+01  7.68069945E+00  6.77869560E-01  2.12472018E+00  6.77869560E-01
  6.77869560E-01 -1.18390283E+01  7.68069945E+00  6.77869560E-01  2.12472018E+00
  6.77869560E-01  6.77869560E-01 -1.18390283E+01  7.68069945E+00  6.77869560E-01
  2.12472018E+00  6.77869560E-01  6.77869560E-01 -1.18390283E+01  7.68069945E+00
  6.77869560E-01  2.12472018E+00  6.77869560E-01  6.77869560E-01 -1.18390283E+01
  7.68069945E+00  6.77869560E-01  2.12472018E+00  6.77869560E-01  6.77869560E-01
 -1.18390283E+01  7.68069945E+00  6.77869560E-01  2.12472018E+00  6.77869560E-01
  6.77869560E-01 -1.18390283E+01  7.68069945E+00  6.77869560E-01  2.12472018E+00
  6.77869560E-01  6.77869560E-01 -1.18390283E+01  7.68069945E+00  6.77869560E-01
  2.12472018E+00  6.77869560E-01  6.77869560E-01 -1.18390283E+01  7.68069945E+00
  6.77869560E-01  2.12472018E+00  6.77869560E-01  6.77869560E-01 -1.18390283E+01
  7.68069945E+00  6.77869560E-01  2.12472018E+00  6.77869560E-01  6.77869560E-01
 -1.18390283E+01  7.68069945E+00  6.77869560E-01  2.12472018E+00  6.77869560E-01
  6.77869560E-01 -1.18390283E+01  7.68069945E+00  6.77869560E-01  2.12472018E+00
  6.77869560E-01  6.77869560E-01 -1.18390283E+01  7.68069945E+00  6.77869560E-01
  2.12472018E+00  6.77869560E-01  6.77869560E-01 -1.18390283E+01  7.68069945E+00
  6.77869560E-01  2.12472018E+00  6.77869560E-01  6.77869560E-01 -1.18390283E+01
  7.68069945E+00  6.77869560E-01  2.12472018E+00  6.77869560E-01  6.77869560E-01
 -1.18390283E+01  7.68069945E+00  6.77869560E-01  2.12472018E+00  6.77869560E-01
  6.77869560E-01 -1.18390283E+01  7.68069945E+00  6.77869560E-01  2.12472018E+00
  6.77869560E-01  6.77869560E-01 -1.18390283E+01  7.68069945E+00  6.77869560E-01
  2.12472018E+00  6.77869560E-01  6.77869560E-01 -1.18390283E+01  7.68069945E+00
  6.77869560E-01  2.12472018E+00  6.77869560E-01  6.77869560E-01 -1.18390283E+01
  7.68069945E+00  6.77869560E-01  2.12472018E+00  6.77869560E-01  6.77869560E-01
 -1.18390283E+01  7.68069945E+00  6.77869560E-01  2.12472018E+00  6.77869560E-01
  6.77869560E-01 -1.18390283E+01  7.68069945E+00  6.77869560E-01  2.12472018E+00
  6.77869560E-01  6.77869560E-01 -1.18390283E+01  7.68069945E+00  6.77869560E-01
  2.12472018E+00  6.77869560E-01  6.77869560E-01 -1.18390283E+01  7.68069945E+00
  6.77869560E-01  2.12472018E+00  6.77869560E-01  6.77869560E-01 -1.18390283E+01
  7.68069945E+00  6.77869560E-01  2.12472018E+00  6.77869560E-01  6.77869560E-01
 -1.18390283E+01  7.68069945E+00  6.77869560E-01  2.12472018E+00  6.77869560E-01
  6.77869560E-01 -1.18390283E+01  7.68069945E+00  6.77869560E-01  2.12472018E+00
  6.77869560E-01  6.77869560E-01 -1.18390283E+01  7.68069945E+00  6.77869560E-01
  2.12472018E+00  6.77869560E-01  6.77869560E-01 -1.18390283E+01  7.68069945E+00
  6.77869560E-01  2.12472018E+00  6.77869560E-01  6.77869560E-01 -1.18390283E+01
  7.68069945E+00  6.77869560E-01  2.12472018E+00  6.77869560E-01  6.77869560E-01
 -1.18390283E+01  7.68069945E+00  6.77869560E-01  2.12472018E+00  6.77869560E-01
  6.77869560E-01 -1.18390283E+01  7.68069945E+00  6.77869560E-01  2.12472018E+00
  6.77869560E-01  6.77869560E-01 -1.18390283E+01  7.68069945E+00  6.77869560E-01
  2.12472018E+00  6.77869560E-01  6.77869560E-01 -1.18390283E+01  7.68069945E+00
  6.77869560E-01  2.12472018E+00  6.77869560E-01  6.77869560E-01 -1.18390283E+01
  7.68069945E+00  6.77869560E-01  2.12472018E+00  6.77869560E-01  6.77869560E-01
 -1.18390283E+01  7.68069945E+00  6.77869560E-01  2.12472018E+00  6.77869560E-01
  6.77869560E-01 -1.18390283E+01  7.68069945E+00  6.77869560E-01  2.12472018E+00
  6.77869560E-01  6.77869560E-01 -1.18390283E+01  7.68069945E+00  6.77869560E-01
  2.12472018E+00  6.77869560E-01  6.77869560E-01 -1.18390283E+01  7.68069945E+00
  6.77869560E-01  2.12472018E+00  6.77869560E-01  6.77869560E-01 -1.18390283E+01
  7.68069945E+00  6.77869560E-01  2.12472018E+00  6.77869560E-01  6.77869560E-01
 -1.18390283E+01  7.68069945E+00  6.77869560E-01  2.12472018E+00  6.77869560E-01
  6.77869560E-01 -1.18390283E+01  7.68069945E+00  6.77869560E-01  2.12472018E+00
  6.77869560E-01  6.77869560E-01 -1.18390283E+01  7.68069945E+00  6.77869560E-01
  2.12472018E+00  6.77869560E-01  6.77869560E-01 -1.18390283E+01  7.68069945E+00
  6.77869560E-01  2.12472018E+00  6.77869560E-01  6.77869560E-01 -1.18390283E+01
  7.68069945E+00  6.77869560E-01  2.12472018E+00  6.77869560E-01  6.77869560E-01
 -1.18390283E+01  7.68069945E+00  6.77869560E-01  2.12472018E+00  6.77869560E-01
  6.77869560E-01 -1.18390283E+01  7.68069945E+00  6.77869560E-01  2.12472018E+00
  6.77869560E-01  6.77869560E-01 -1.18390283E+01  7.68069945E+00  6.77869560E-01
  2.12472018E+00  6.77869560E-01  6.77869560E-01 -1.18390283E+01  7.68069945E+00
  6.77869560E-01  2.12472018E+00  6.77869560E-01  6.77869560E-01 -1.18390283E+01
  7.68069945E+00  6.77869560E-01  2.12472018E+00  6.77869560E-01  6.77869560E-01
 -1.18390283E+01  7.68069945E+00  6.77869560E-01  2.12472018E+00  6.77869560E-01
  6.77869560E-01 -1.18390283E+01  7.68069945E+00  6.77869560E-01  2.12472018E+00
  6.77869560E-01  6.77869560E-01 -1.18390283E+01  7.68069945E+00  6.77869560E-01
  2.12472018E+00  6.77869560E-01  6.77869560E-01 -1.18390283E+01  7.68069945E+00
  6.77869560E-01  2.12472018E+00  6.77869560E-01  6.77869560E-01 -1.18390283E+01
  7.68069945E+00  6.77869560E-01  2.12472018E+00  6.77869560E-01  6.77869560E-01
 -1.18390283E+01  7.68069945E+00  6.77869560E-01  2.12472018E+00  6.77869560E-01
  6.77869560E-01 -1.18390283E+01  7.68069945E+00  6.77869560E-01  2.12472018E+00
  6.77869560E-01  6.77869560E-01 -1.18390283E+01  7.68069945E+00  6.77869560E-01
  2.12472018E+00  6.77869560E-01  6.77869560E-01 -1.18390283E+01  7.68069945E+00
  6.77869560E-01  2.12472018E+00  6.77869560E-01  6.77869560E-01 -1.18390283E+01
  7.68069945E+00  6.77869560E-01  2.12472018E+00  6.77869560E-01  6.77869560E-01
 -1.18390283E+01  7.68069945E+00  6.77869560E-01  2.12472018E+00  6.77869560E-01
  6.77869560E-01 -1.18390283E+01  7.68069945E+00  6.77869560E-01  2.12472018E+00
  6.77869560E-01  6.77869560E-01 -1.18390283E+01  7.68069945E+00  6.77869560E-01
  2.12472018E+00  6.77869560E-01  6.77869560E-01 -1.18390283E+01  7.68069945E+00
  6.77869560E-01  2.12472018E+00  6.77869560E-01  6.77869560E-01 -1.18390283E+01
  7.68069945E+00  6.77869560E-01  2.12472018E+00  6.77869560E-01  6.77869560E-01
 -1.18390283E+01  7.68069945E+00  6.77869560E-01  2.12472018E+00  6.77869560E-01
  6.77869560E-01 -1.18390283E+01  7.68069945E+00  6.77869560E-01  2.12472018E+00
  6.77869560E-01  6.77869560E-01 -1.18390283E+01  7.68069945E+00  6.77869560E-01
  2.12472018E+00  6.77869560E-01  6.77869560E-01 -1.18390283E+01  7.68069945E+00
  6.77869560E-01  2.12472018E+00  6.77869560E-01  6.77869560E-01 -1.18390283E+01
  7.68069945E+00  6.77869560E-01  2.12472018E+00  6.77869560E-01  6.77869560E-01
 -1.18390283E+01  7.68069945E+00  6.77869560E-01  2.12472018E+00  6.77869560E-01
  6.77869560E-01 -1.18390283E+01  7.68069945E+00  6.77869560E-01  2.12472018E+00
  6.77869560E-01  6.77869560E-01 -1.18390283E+01  7.68069945E+00  6.77869560E-01
  2.12472018E+00  6.77869560E-01  6.77869560E-01 -1.18390283E+01  7.68069945E+00
  6.77869560E-01  2.12472018E+00  6.77869560E-01  6.77869560E-01 -1.18390283E+01
  7.68069945E+00  6.77869560E-01  2.12472018E+00  6.77869560E-01  6.77869560E-01
 -1.18390283E+01  7.68069945E+00  6.77869560E-01  2.12472018E+00  6.77869560E-01
  6.77869560E-01 -1.18390283E+01  7.68069945E+00  6.77869560E-01  2.12472018E+00
  6.77869560E-01  6.77869560E-01 -1.18390283E+01  7.68069945E+00  6.77869560E-01
  2.12472018E+00  6.77869560E-01  6.77869560E-01 -1.18390283E+01  7.68069945E+00
  6.77869560E-01  2.12472018E+00  6.77869560E-01  6.77869560E-01 -1.18390283E+01
  7.68069945E+00  6.77869560E-01  2.12472018E+00  6.77869560E-01  6.77869560E-01
 -1.18390283E+01  7.68069945E+00  6.77869560E-01  2.12472018E+00  6.77869560E-01
  6.77869560E-01 -1.18390283E+01  7.68069945E+00  6.77869560E-01  2.12472018E+00
  6.77869560E-01  6.77869560E-01 -1.18390283E+01  7.68069945E+00  6.77869560E-01
  2.12472018E+00  6.77869560E-01  6.77869560E-01 -1.18390283E+01  7.68069945E+00
  6.77869560E-01  2.12472018E+00  6.77869560E-01  6.77869560E-01 -1.18390283E+01
  7.68069945E+00  6.77869560E-01  2.12472018E+00  6.77869560E-01  6.77869560E-01
 -1.18390283E+01  7.68069945E+00  6.77869560E-01  2.12472018E+00  6.77869560E-01
  6.77869560E-01 -1.18390283E+01  7.68069945E+00  6.77869560E-01  2.12472018E+00
  6.77869560E-01  6.77869560E-01 -1.18390283E+01  7.68069945E+00  6.77869560E-01
  2.12472018E+00  6.77869560E-01  6.77869560E-01 -1.18390283E+01  7.68069945E+00
  6.77869560E-01  2.12472018E+00  6.77869560E-01  6.77869560E-01 -1.18390283E+01
  7.68069945E+00  6.77869560E-01  2.12472018E+00  6.77869560E-01  6.77869560E-01
 -1.18390283E+01  7.68069945E+00  6.77869560E-01  2.12472018E+00  6.77869560E-01
  6.77869560E-01 -1.18390283E+01  7.68069945E+00  6.77869560E-01  2.12472018E+00
  6.77869560E-01  6.77869560E-01 -1.18390283E+01  7.68069945E+00  6.77869560E-01
  2.12472018E+00  6.77869560E-01  6.77869560E-01 -1.18390283E+01  7.68069945E+00
  6.77869560E-01  2.12472018E+00  6.77869560E-01  6.77869560E-01 -1.18390283E+01
  7.68069945E+00  6.77869560E-01  2.12472018E+00  6.77869560E-01  6.77869560E-01
 -1.18390283E+01  7.68069945E+00  6.77869560E-01  2.12472018E+00  6.77869560E-01
  6.77869560E-01 -1.18390283E+01  7.68069945E+00  6.77869560E-01  2.12472018E+00
  6.77869560E-01  6.77869560E-01 -1.18390283E+01  7.68069945E+00  6.77869560E-01
  2.12472018E+00  6.77869560E-01  6.77869560E-01 -1.18390283E+01  7.68069945E+00
  6.77869560E-01  2.12472018E+00  6.77869560E-01  6.77869560E-01 -1.18390283E+01
  7.68069945E+00  6.77869560E-01  2.12472018E+00  6.77869560E-01  6.77869560E-01
 -1.18390283E+01  7.68069945E+00  6.77869560E-01  2.12472018E+00  6.77869560E-01
  6.77869560E-01 -1.18390283E+01  7.68069945E+00  6.77869560E-01  2.12472018E+00
  6.77869560E-01  6.77869560E-01 -1.18390283E+01  7.68069945E+00  6.77869560E-01
  2.12472018E+00  6.77869560E-01  6.77869560E-01 -1.18390283E+01  7.68069945E+00
  6.77869560E-01  2.12472018E+00  6.77869560E-01  6.77869560E-01 -1.18390283E+01
  7.68069945E+00  6.77869560E-01  2.12472018E+00  6.77869560E-01  6.77869560E-01
 -1.18390283E+01  7.68069945E+00  6.77869560E-01  2.12472018E+00  6.77869560E-01
  6.77869560E-01 -1.18390283E+01  7.68069945E+00  6.77869560E-01  2.12472018E+00
  6.77869560E-01  6.77869560E-01 -1.18390283E+01  7.68069945E+00  6.77869560E-01
  2.12472018E+00  6.77869560E-01  6.77869560E-01 -1.18390283E+01  7.68069945E+00
  6.77869560E-01  2.12472018E+00  6.77869560E-01  6.77869560E-01 -1.18390283E+01
  7.68069945E+00  6.77869560E-01  2.12472018E+00  6.77869560E-01  6.77869560E-01
 -1.18390283E+01  7.68069945E+00  6.77869560E-01  2.12472018E+00  6.77869560E-01
  6.77869560E-01 -1.18390283E+01  7.68069945E+00  6.77869560E-01  2.12472018E+00
  6.77869560E-01  6.77869560E-01 -1.18390283E+01  7.68069945E+00  6.77869560E-01
  2.12472018E+00  6.77869560E-01  6.77869560E-01 -1.18390283E+01  7.68069945E+00
  6.77869560E-01  2.12472018E+00  6.77869560E-01  6.77869560E-01 -1.18390283E+01
  7.68069945E+00  6.77869560E-01  2.12472018E+00  6.77869560E-01  6.77869560E-01
 -1.18390283E+01  7.68069945E+00  6.77869560E-01  2.12472018E+00  6.77869560E-01
  6.77869560E-01 -1.18390283E+01  7.68069945E+00  6.77869560E-01  2.12472018E+00
  6.77869560E-01  6.77869560E-01 -1.18390283E+01  7.68069945E+00  6.77869560E-01
  2.12472018E+00  6.77869560E-01  6.77869560E-01 -1.18390283E+01  7.68069945E+00
  6.77869560E-01  2.12472018E+00  6.77869560E-01  6.77869560E-01 -1.18390283E+01
  7.68069945E+00  6.77869560E-01  2.12472018E+00  6.77869560E-01  6.77869560E-01
 -1.18390283E+01  7.68069945E+00  6.77869560E-01  2.12472018E+00  6.77869560E-01
  6.77869560E-01 -1.18390283E+01  7.68069945E+00  6.77869560E-01  2.12472018E+00
  6.77869560E-01  6.77869560E-01 -1.18390283E+01  7.68069945E+00  6.77869560E-01
  2.12472018E+00  6.77869560E-01  6.77869560E-01 -1.18390283E+01  7.68069945E+00
  6.77869560E-01  2.12472018E+00  6.77869560E-01  6.77869560E-01 -1.18390283E+01
  7.68069945E+00  6.77869560E-01  2.12472018E+00  6.77869560E-01  6.77869560E-01
 -1.18390283E+01  7.68069945E+00  6.77869560E-01  2.12472018E+00  6.77869560E-01
  6.77869560E-01 -1.18390283E+01  7.68069945E+00  6.77869560E-01  2.12472018E+00
  6.77869560E-01  6.77869560E-01 -1.18390283E+01  7.68069945E+00  6.77869560E-01
  2.12472018E+00  6.77869560E-01  6.77869560E-01 -1.18390283E+01  7.68069945E+00
  6.77869560E-01  2.12472018E+00  6.77869560E-01  6.77869560E-01 -1.18390283E+01
  7.68069945E+00  6.77869560E-01  2.12472018E+00  6.77869560E-01  6.77869560E-01
 -1.18390283E+01  7.68069945E+00  6.77869560E-01  2.12472018E+00  6.77869560E-01
  6.77869560E-01 -1.18390283E+01  7.68069945E+00  6.77869560E-01  2.12472018E+00
  6.77869560E-01  6.77869560E-01 -1.18390283E+01  7.68069945E+00  6.77869560E-01
  2.12472018E+00  6.77869560E-01  6.77869560E-01 -1.18390283E+01  7.68069945E+00
  6.77869560E-01  2.12472018E+00  6.77869560E-01  6.77869560E-01 -1.18390283E+01
  7.68069945E+00  6.77869560E-01  2.12472018E+00  6.77869560E-01  6.77869560E-01
 -1.18390283E+01  7.68069945E+00  6.77869560E-01  2.12472018E+00  6.77869560E-01
  6.77869560E-01 -1.18390283E+01  7.68069945E+00  6.77869560E-01  2.12472018E+00
  6.77869560E-01  6.77869560E-01 -1.18390283E+01  7.68069945E+00  6.77869560E-01
  2.12472018E+00  6.77869560E-01  6.77869560E-01 -1.18390283E+01  7.68069945E+00
  6.77869560E-01  2.12472018E+00  6.77869560E-01  6.77869560E-01 -1.18390283E+01
  7.68069945E+00  6.77869560E-01  2.12472018E+00  6.77869560E-01  6.77869560E-01
 -1.18390283E+01  7.68069945E+00  6.77869560E-01  2.12472018E+00  6.77869560E-01
  6.77869560E-01 -1.18390283E+01  7.68069945E+00  6.77869560E-01  2.12472018E+00
  6.77869560E-01  6.77869560E-01 -1.18390283E+01  7.68069945E+00  6.77869560E-01
  2.12472018E+00  6.77869560E-01  6.77869560E-01 -1.18390283E+01  7.68069945E+00
  6.77869560E-01  2.12472018E+00  6.77869560E-01  6.77869560E-01 -1.18390283E+01
  7.68069945E+00  6.77869560E-01  2.12472018E+00  6.77869560E-01  6.77869560E-01
 -1.18390283E+01  7.68069945E+00  6.77869560E-01  2.12472018E+00  6.77869560E-01
  6.77869560E-01 -1.18390283E+01  7.68069945E+00  6.77869560E-01  2.12472018E+00
  6.77869560E-01  6.77869560E-01 -1.18390283E+01  7.68069945E+00  6.77869560E-01
  2.12472018E+00  6.77869560E-01  6.77869560E-01 -1.18390283E+01  7.68069945E+00
  6.77869560E-01  2.12472018E+00  6.77869560E-01  6.77869560E-01 -1.18390283E+01
  7.68069945E+00  6.77869560E-01  2.12472018E+00  6.77869560E-01  6.77869560E-01
 -1.18390283E+01  7.68069945E+00  6.77869560E-01  2.12472018E+00  6.77869560E-01
  6.77869560E-01 -1.18390283E+01  7.68069945E+00  6.77869560E-01  2.12472018E+00
  6.77869560E-01  6.77869560E-01 -1.18390283E+01  7.68069945E+00  6.77869560E-01
  2.12472018E+00  6.77869560E-01  6.77869560E-01 -1.18390283E+01  7.68069945E+00
  6.77869560E-01  2.12472018E+00  6.77869560E-01  6.77869560E-01 -1.18390283E+01
  7.68069945E+00  6.77869560E-01  2.12472018E+00  6.77869560E-01  6.77869560E-01
 -1.18390283E+01  7.68069945E+00  6.77869560E-01  2.12472018E+00  6.77869560E-01
  6.77869560E-01 -1.18390283E+01  7.68069945E+00  6.77869560E-01  2.12472018E+00
  6.77869560E-01  6.77869560E-01 -1.18390283E+01  7.68069945E+00  6.77869560E-01
  2.12472018E+00  6.77869560E-01  6.77869560E-01 -1.18390283E+01  7.68069945E+00
  6.77869560E-01  2.12472018E+00  6.77869560E-01  6.77869560E-01 -1.18390283E+01
  7.68069945E+00  6.77869560E-01  2.12472018E+00  6.77869560E-01  6.77869560E-01
 -1.18390283E+01  7.68069945E+00  6.77869560E-01  2.12472018E+00  6.77869560E-01
  6.77869560E-01 -1.18390283E+01  7.68069945E+00  6.77869560E-01  2.12472018E+00
  6.77869560E-01  6.77869560E-01 -1.18390283E+01  7.68069945E+00  6.77869560E-01
  2.12472018E+00  6.77869560E-01  6.77869560E-01 -1.18390283E+01  7.68069945E+00
  6.77869560E-01  2.12472018E+00  6.77869560E-01  6.77869560E-01 -1.18390283E+01
  7.68069945E+00  6.77869560E-01  2.12472018E+00  6.77869560E-01  6.77869560E-01
 -1.18390283E+01  7.68069945E+00  6.77869560E-01  2.12472018E+00  6.77869560E-01
  6.77869560E-01 -1.18390283E+01  7.68069945E+00  6.77869560E-01  2.12472018E+00
  6.77869560E-01  6.77869560E-01 -1.18390283E+01  7.68069945E+00  6.77869560E-01
  2.12472018E+00  6.77869560E-01  6.77869560E-01 -1.18390283E+01  7.68069945E+00
  6.77869560E-01  2.12472018E+00  6.77869560E-01  6.77869560E-01 -1.18390283E+01
  7.68069945E+00  6.77869560E-01  2.12472018E+00  6.77869560E-01  6.77869560E-01
 -1.18390283E+01  7.68069945E+00  6.77869560E-01  2.12472018E+00  6.77869560E-01
  6.77869560E-01 -1.18390283E+01  7.68069945E+00  6.77869560E-01  2.12472018E+00
  6.77869560E-01  6.77869560E-01 -1.18390283E+01  7.68069945E+00  6.77869560E-01
  2.12472018E+00  6.77869560E-01  6.77869560E-01 -1.18390283E+01  7.68069945E+00
  6.77869560E-01  2.12472018E+00  6.77869560E-01  6.77869560E-01 -1.18390283E+01
  7.68069945E+00  6.77869560E-01  2.12472018E+00  6.77869560E-01  6.77869560E-01
 -1.18390283E+01  7.68069945E+00  6.77869560E-01  2.12472018E+00  6.77869560E-01
  6.77869560E-01 -1.18390283E+01  7.68069945E+00  6.77869560E-01  2.12472018E+00
  6.77869560E-01  6.77869560E-01 -1.18390283E+01  7.68069945E+00  6.77869560E-01
  2.12472018E+00  6.77869560E-01  6.77869560E-01 -1.18390283E+01  7.68069945E+00
  6.77869560E-01  2.12472018E+00  6.77869560E-01  6.77869560E-01 -1.18390283E+01
  7.68069945E+00  6.77869560E-01  2.12472018E+00  6.77869560E-01  6.77869560E-01
 -1.18390283E+01  7.68069945E+00  6.77869560E-01  2.12472018E+00  6.77869560E-01
  6.77869560E-01 -1.18390283E+01  7.68069945E+00  6.77869560E-01  2.12472018E+00
  6.77869560E-01  6.77869560E-01 -1.18390283E+01  7.68069945E+00  6.77869560E-01
  2.12472018E+00  6.77869560E-01  6.77869560E-01 -1.18390283E+01  7.68069945E+00
  6.77869560E-01  2.12472018E+00  6.77869560E-01  6.77869560E-01 -1.18390283E+01
  7.68069945E+00  6.77869560E-01  2.12472018E+00  6.77869560E-01  6.77869560E-01
 -1.18390283E+01  7.68069945E+00  6.77869560E-01  2.12472018E+00  6.77869560E-01
  6.77869560E-01 -1.18390283E+01  7.68069945E+00  6.77869560E-01  2.12472018E+00
  6.77869560E-01  6.77869560E-01 -1.18390283E+01  7.68069945E+00  6.77869560E-01
  2.12472018E+00  6.77869560E-01  6.77869560E-01 -1.18390283E+01  7.68069945E+00
  6.77869560E-01  2.12472018E+00  6.77869560E-01  6.77869560E-01 -1.18390283E+01
  7.68069945E+00  6.77869560E-01  2.12472018E+00  6.77869560E-01  6.77869560E-01
 -1.18390283E+01  7.68069945E+00  6.77869560E-01  2.12472018E+00  6.77869560E-01
  6.77869560E-01 -1.18390283E+01  7.68069945E+00  6.77869560E-01  2.12472018E+00
  6.77869560E-01  6.77869560E-01 -1.18390283E+01  7.68069945E+00  6.77869560E-01
  2.12472018E+00  6.77869560E-01  6.77869560E-01 -1.18390283E+01  7.68069945E+00
  6.77869560E-01  2.12472018E+00  6.77869560E-01  6.77869560E-01 -1.18390283E+01
  7.68069945E+00  6.77869560E-01  2.12472018E+00  6.77869560E-01  6.77869560E-01
 -1.18390283E+01  7.68069945E+00  6.77869560E-01  2.12472018E+00  6.77869560E-01
  6.77869560E-01 -1.18390283E+01  7.68069945E+00  6.77869560E-01  2.12472018E+00
  6.77869560E-01  6.77869560E-01 -1.18390283E+01  7.68069945E+00  6.77869560E-01
  2.12472018E+00  6.77869560E-01  6.77869560E-01 -1.18390283E+01  7.68069945E+00
  6.77869560E-01  2.12472018E+00  6.77869560E-01  6.77869560E-01 -1.18390283E+01
  7.68069945E+00  6.77869560E-01  2.12472018E+00  6.77869560E-01  6.77869560E-01
 -1.18390283E+01  7.68069945E+00  6.77869560E-01  2.12472018E+00  6.77869560E-01
  6.77869560E-01 -1.18390283E+01  7.68069945E+00  6.77869560E-01  2.12472018E+00
  6.77869560E-01  6.77869560E-01 -1.18390283E+01  7.68069945E+00  6.77869560E-01
  2.12472018E+00  6.77869560E-01  6.77869560E-01 -1.18390283E+01  7.68069945E+00
  6.77869560E-01  2.12472018E+00  6.77869560E-01  6.77869560E-01 -1.18390283E+01
  7.68069945E+00  6.77869560E-01  2.12472018E+00  6.77869560E-01  6.77869560E-01
 -1.18390283E+01  7.68069945E+00  6.77869560E-01  2.12472018E+00  6.77869560E-01
  6.77869560E-01 -1.18390283E+01  7.68069945E+00  6.77869560E-01  2.12472018E+00
  6.77869560E-01  6.77869560E-01 -1.18390283E+01  7.68069945E+00  6.77869560E-01
  2.12472018E+00  6.77869560E-01  6.77869560E-01 -1.18390283E+01  7.68069945E+00
  6.77869560E-01  2.12472018E+00  6.77869560E-01  6.77869560E-01 -1.18390283E+01
  7.68069945E+00  6.77869560E-01  2.12472018E+00  6.77869560E-01  6.77869560E-01
 -1.18390283E+01  7.68069945E+00  6.77869560E-01  2.12472018E+00  6.77869560E-01
  6.77869560E-01 -1.18390283E+01  7.68069945E+00  6.77869560E-01  2.12472018E+00
  6.77869560E-01  6.77869560E-01 -1.18390283E+01  7.68069945E+00  6.77869560E-01
  2.12472018E+00  6.77869560E-01  6.77869560E-01 -1.18390283E+01  7.68069945E+00
  6.77869560E-01  2.12472018E+00  6.77869560E-01  6.77869560E-01 -1.18390283E+01
  7.68069945E+00  6.77869560E-01  2.12472018E+00  6.77869560E-01  6.77869560E-01
 -1.18390283E+01  7.68069945E+00  6.77869560E-01  2.12472018E+00  6.77869560E-01
  6.77869560E-01 -1.18390283E+01  7.68069945E+00  6.77869560E-01  2.12472018E+00
  6.77869560E-01  6.77869560E-01 -1.18390283E+01  7.68069945E+00  6.77869560E-01
  2.12472018E+00  6.77869560E-01  6.77869560E-01 -1.18390283E+01  7.68069945E+00
  6.77869560E-01  2.12472018E+00  6.77869560E-01  6.77869560E-01 -1.18390283E+01
  7.68069945E+00  6.77869560E-01  2.12472018E+00  6.77869560E-01  6.77869560E-01
 -1.18390283E+01  7.68069945E+00  6.77869560E-01  2.12472018E+00  6.77869560E-01
  6.77869560E-01 -1.18390283E+01  7.68069945E+00  6.77869560E-01  2.12472018E+00
  6.77869560E-01  6.77869560E-01 -1.18390283E+01  7.68069945E+00  6.77869560E-01
  2.12472018E+00  6.77869560E-01  6.77869560E-01 -1.18390283E+01  7.68069945E+00
  6.77869560E-01  2.12472018E+00  6.77869560E-01  6.77869560E-01 -1.18390283E+01
  7.68069945E+00  6.77869560E-01  2.12472018E+00  6.77869560E-01  6.77869560E-01
 -1.18390283E+01  7.68069945E+00  6.77869560E-01  2.12472018E+00  6.77869560E-01
  6.77869560E-01 -1.18390283E+01  7.68069945E+00  6.77869560E-01  2.12472018E+00
  6.77869560E-01  6.77869560E-01 -1.18390283E+01  7.68069945E+00  6.77869560E-01
  2.12472018E+00  6.77869560E-01  6.77869560E-01 -1.18390283E+01  7.68069945E+00
  6.77869560E-01  2.12472018E+00  6.77869560E-01  6.77869560E-01 -1.18390283E+01
  7.68069945E+00  6.77869560E-01  2.12472018E+00  6.77869560E-01  6.77869560E-01
 -1.18390283E+01  7.68069945E+00  6.77869560E-01  2.12472018E+00  6.77869560E-01
  6.77869560E-01 -1.18390283E+01  7.68069945E+00  6.77869560E-01  2.12472018E+00
  6.77869560E-01  6.77869560E-01 -1.18390283E+01  7.68069945E+00  6.77869560E-01
  2.12472018E+00  6.77869560E-01  6.77869560E-01 -1.18390283E+01  7.68069945E+00
  6.77869560E-01  2.12472018E+00  6.77869560E-01  6.77869560E-01 -1.18390283E+01
  7.68069945E+00  6.77869560E-01  2.12472018E+00  6.77869560E-01  6.77869560E-01
 -1.18390283E+01  7.68069945E+00  6.77869560E-01  2.12472018E+00  6.77869560E-01
  6.77869560E-01 -1.18390283E+01  7.68069945E+00  6.77869560E-01  2.12472018E+00
  6.77869560E-01  6.77869560E-01 -1.18390283E+01  7.68069945E+00  6.77869560E-01
  2.12472018E+00  6.77869560E-01  6.77869560E-01 -1.18390283E+01  7.68069945E+00
  6.77869560E-01  2.12472018E+00  6.77869560E-01  6.77869560E-01 -1.18390283E+01
  7.68069945E+00  6.77869560E-01  2.12472018E+00  6.77869560E-01  6.77869560E-01
 -1.18390283E+01  7.68069945E+00  6.77869560E-01  2.12472018E+00  6.77869560E-01
  6.77869560E-01 -1.18390283E+01  7.68069945E+00  6.77869560E-01  2.12472018E+00
  6.77869560E-01  6.77869560E-01 -1.18390283E+01  7.68069945E+00  6.77869560E-01
  2.12472018E+00  6.77869560E-01  6.77869560E-01 -1.18390283E+01  7.68069945E+00
  6.77869560E-01  2.12472018E+00  6.77869560E-01  6.77869560E-01 -1.18390283E+01
  7.68069945E+00  6.77869560E-01  2.12472018E+00  6.77869560E-01  6.77869560E-01
 -1.18390283E+01  7.68069945E+00  6.77869560E-01  2.12472018E+00  6.77869560E-01
  6.77869560E-01 -1.18390283E+01  7.68069945E+00  6.77869560E-01  2.12472018E+00
  6.77869560E-01  6.77869560E-01 -1.18390283E+01  7.68069945E+00  6.77869560E-01
  2.12472018E+00  6.77869560E-01  6.77869560E-01 -1.18390283E+01  7.68069945E+00
  6.77869560E-01  2.12472018E+00  6.77869560E-01  6.77869560E-01 -1.18390283E+01
  7.68069945E+00  6.77869560E-01  2.12472018E+00  6.77869560E-01  6.77869560E-01
 -1.18390283E+01  7.68069945E+00  6.77869560E-01  2.12472018E+00  6.77869560E-01
  6.77869560E-01 -1.18390283E+01  7.68069945E+00  6.77869560E-01  2.12472018E+00
  6.77869560E-01  6.77869560E-01 -1.18390283E+01  7.68069945E+00  6.77869560E-01
  2.12472018E+00  6.77869560E-01  6.77869560E-01 -1.18390283E+01  7.68069945E+00
  6.77869560E-01  2.12472018E+00  6.77869560E-01  6.77869560E-01 -1.18390283E+01
  7.68069945E+00  6.77869560E-01  2.12472018E+00  6.77869560E-01  6.77869560E-01
 -1.18390283E+01  7.68069945E+00  6.77869560E-01  2.12472018E+00  6.77869560E-01
  6.77869560E-01 -1.18390283E+01  7.68069945E+00  6.77869560E-01  2.12472018E+00
  6.77869560E-01  6.77869560E-01 -1.18390283E+01  7.68069945E+00  6.77869560E-01
  2.12472018E+00  6.77869560E-01  6.77869560E-01 -1.18390283E+01  7.68069945E+00
  6.77869560E-01  2.12472018E+00  6.77869560E-01  6.77869560E-01 -1.18390283E+01
  7.68069945E+00  6.77869560E-01  2.12472018E+00  6.77869560E-01  6.77869560E-01
 -1.18390283E+01  7.68069945E+00  6.77869560E-01  2.12472018E+00  6.77869560E-01
  6.77869560E-01 -1.18390283E+01  7.68069945E+00  6.77869560E-01  2.12472018E+00
  6.77869560E-01  6.77869560E-01 -1.18390283E+01  7.68069945E+00  6.77869560E-01
  2.12472018E+00  6.77869560E-01  6.77869560E-01 -1.18390283E+01  7.68069945E+00
  6.77869560E-01  2.12472018E+00  6.77869560E-01  6.77869560E-01 -1.18390283E+01
  7.68069945E+00  6.77869560E-01  2.12472018E+00  6.77869560E-01  6.77869560E-01
 -1.18390283E+01  7.68069945E+00  6.77869560E-01  2.12472018E+00  6.77869560E-01
  6.77869560E-01 -1.18390283E+01  7.68069945E+00  6.77869560E-01  2.12472018E+00
  6.77869560E-01  6.77869560E-01 -1.18390283E+01  7.68069945E+00  6.77869560E-01
  2.12472018E+00  6.77869560E-01  6.77869560E-01 -1.18390283E+01  7.68069945E+00
  6.77869560E-01  2.12472018E+00  6.77869560E-01  6.77869560E-01 -1.18390283E+01
  7.68069945E+00  6.77869560E-01  2.12472018E+00  6.77869560E-01  6.77869560E-01
 -1.18390283E+01  7.68069945E+00  6.77869560E-01  2.12472018E+00  6.77869560E-01
  6.77869560E-01 -1.18390283E+01  7.68069945E+00  6.77869560E-01  2.12472018E+00
  6.77869560E-01  6.77869560E-01 -1.18390283E+01  7.68069945E+00  6.77869560E-01
  2.12472018E+00  6.77869560E-01  6.77869560E-01 -1.18390283E+01  7.68069945E+00
  6.77869560E-01  2.12472018E+00  6.77869560E-01  6.77869560E-01 -1.18390283E+01
  7.68069945E+00  6.77869560E-01  2.12472018E+00  6.77869560E-01  6.77869560E-01
 -1.18390283E+01  7.68069945E+00  6.77869560E-01  2.12472018E+00  6.77869560E-01
  6.77869560E-01 -1.18390283E+01  7.68069945E+00  6.77869560E-01  2.12472018E+00
  6.77869560E-01  6.77869560E-01 -1.18390283E+01  7.68069945E+00  6.77869560E-01
  2.12472018E+00  6.77869560E-01  6.77869560E-01 -1.18390283E+01  7.68069945E+00
  6.77869560E-01  2.12472018E+00  6.77869560E-01  6.77869560E-01 -1.18390283E+01
  7.68069945E+00  6.77869560E-01  2.12472018E+00  6.77869560E-01  6.77869560E-01
 -1.18390283E+01  7.68069945E+00  6.77869560E-01  2.12472018E+00  6.77869560E-01
  6.77869560E-01 -1.18390283E+01  7.68069945E+00  6.77869560E-01  2.12472018E+00
  6.77869560E-01  6.77869560E-01 -1.18390283E+01  7.68069945E+00  6.77869560E-01
  2.12472018E+00  6.77869560E-01  6.77869560E-01 -1.18390283E+01  7.68069945E+00
  6.77869560E-01  2.12472018E+00  6.77869560E-01  6.77869560E-01 -1.18390283E+01
  7.68069945E+00  6.77869560E-01  2.12472018E+00  6.77869560E-01  6.77869560E-01
 -1.18390283E+01  7.68069945E+00  6.77869560E-01  2.12472018E+00  6.77869560E-01
  6.77869560E-01 -1.18390283E+01  7.68069945E+00  6.77869560E-01  2.12472018E+00
  6.77869560E-01  6.77869560E-01 -1.18390283E+01  7.68069945E+00  6.77869560E-01
  2.12472018E+00  6.77869560E-01  6.77869560E-01 -1.18390283E+01  7.68069945E+00
  6.77869560E-01  2.12472018E+00  6.77869560E-01  6.77869560E-01 -1.18390283E+01
  7.68069945E+00  6.77869560E-01  2.12472018E+00  6.77869560E-01  6.77869560E-01
 -1.18390283E+01  7.68069945E+00  6.77869560E-01  2.12472018E+00  6.77869560E-01
  6.77869560E-01 -1.18390283E+01  7.68069945E+00  6.77869560E-01  2.12472018E+00
  6.77869560E-01  6.77869560E-01 -1.18390283E+01  7.68069945E+00  6.77869560E-01
  2.12472018E+00  6.77869560E-01  6.77869560E-01 -1.18390283E+01  7.68069945E+00
  6.77869560E-01  2.12472018E+00  6.77869560E-01  6.77869560E-01 -1.18390283E+01
  7.68069945E+00  6.77869560E-01  2.12472018E+00  6.77869560E-01  6.77869560E-01
 -1.18390283E+01  7.68069945E+00  6.77869560E-01  2.12472018E+00  6.77869560E-01
  6.77869560E-01 -1.18390283E+01  7.68069945E+00  6.77869560E-01  2.12472018E+00
  6.77869560E-01  6.77869560E-01 -1.18390283E+01  7.68069945E+00  6.77869560E-01
  2.12472018E+00  6.77869560E-01  6.77869560E-01 -1.18390283E+01  7.68069945E+00
  6.77869560E-01  2.12472018E+00  6.77869560E-01  6.77869560E-01 -1.18390283E+01
  7.68069945E+00  6.77869560E-01  2.12472018E+00  6.77869560E-01  6.77869560E-01
 -1.18390283E+01  7.68069945E+00  6.77869560E-01  2.12472018E+00  6.77869560E-01
  6.77869560E-01 -1.18390283E+01  7.68069945E+00  6.77869560E-01  2.12472018E+00
  6.77869560E-01  6.77869560E-01 -1.18390283E+01  7.68069945E+00  6.77869560E-01
  2.12472018E+00  6.77869560E-01  6.77869560E-01 -1.18390283E+01  7.68069945E+00
  6.77869560E-01  2.12472018E+00  6.77869560E-01  6.77869560E-01 -1.18390283E+01
  7.68069945E+00  6.77869560E-01  2.12472018E+00  6.77869560E-01  6.77869560E-01
 -1.18390283E+01  7.68069945E+00  6.77869560E-01  2.12472018E+00  6.77869560E-01
  6.77869560E-01 -1.18390283E+01  7.68069945E+00  6.77869560E-01  2.12472018E+00
  6.77869560E-01  6.77869560E-01 -1.18390283E+01  7.68069945E+00  6.77869560E-01
  2.12472018E+00  6.77869560E-01  6.77869560E-01 -1.18390283E+01  7.68069945E+00
  6.77869560E-01  2.12472018E+00  6.77869560E-01  6.77869560E-01 -1.18390283E+01
  7.68069945E+00  6.77869560E-01  2.12472018E+00  6.77869560E-01  6.77869560E-01
 -1.18390283E+01  7.68069945E+00  6.77869560E-01  2.12472018E+00  6.77869560E-01
  6.77869560E-01 -1.18390283E+01  7.68069945E+00  6.77869560E-01  2.12472018E+00
  6.77869560E-01  6.77869560E-01 -1.18390283E+01  7.68069945E+00  6.77869560E-01
  2.12472018E+00  6.77869560E-01  6.77869560E-01 -1.18390283E+01  7.68069945E+00
  6.77869560E-01  2.12472018E+00  6.77869560E-01  6.77869560E-01 -1.18390283E+01
  7.68069945E+00  6.77869560E-01  2.12472018E+00  6.77869560E-01  6.77869560E-01
 -1.18390283E+01  7.68069945E+00  6.77869560E-01  2.12472018E+00  6.77869560E-01
  6.77869560E-01 -1.18390283E+01  7.68069945E+00  6.77869560E-01  2.12472018E+00
  6.77869560E-01  6.77869560E-01 -1.18390283E+01  7.68069945E+00  6.77869560E-01
  2.12472018E+00  6.77869560E-01  6.77869560E-01 -1.18390283E+01  7.68069945E+00
  6.77869560E-01  2.12472018E+00  6.77869560E-01  6.77869560E-01 -1.18390283E+01
  7.68069945E+00  6.77869560E-01  2.12472018E+00  6.77869560E-01  6.77869560E-01
 -1.18390283E+01  7.68069945E+00  6.77869560E-01  2.12472018E+00  6.77869560E-01
  6.77869560E-01 -1.18390283E+01  7.68069945E+00  6.77869560E-01  2.12472018E+00
  6.77869560E-01  6.77869560E-01 -1.18390283E+01  7.68069945E+00  6.77869560E-01
  2.12472018E+00  6.77869560E-01  6.77869560E-01 -1.18390283E+01  7.68069945E+00
  6.77869560E-01  2.12472018E+00  6.77869560E-01  6.77869560E-01 -1.18390283E+01
  7.68069945E+00  6.77869560E-01  2.12472018E+00  6.77869560E-01  6.77869560E-01
 -1.18390283E+01  7.68069945E+00  6.77869560E-01  2.12472018E+00  6.77869560E-01
  6.77869560E-01 -1.18390283E+01  7.68069945E+00  6.77869560E-01  2.12472018E+00
  6.77869560E-01  6.77869560E-01 -1.18390283E+01  7.68069945E+00  6.77869560E-01
  2.12472018E+00  6.77869560E-01  6.77869560E-01 -1.18390283E+01  7.68069945E+00
  6.77869560E-01  2.12472018E+00  6.77869560E-01  6.77869560E-01 -1.18390283E+01
  7.68069945E+00  6.77869560E-01  2.12472018E+00  6.77869560E-01  6.77869560E-01
 -1.18390283E+01  7.68069945E+00  6.77869560E-01  2.12472018E+00  6.77869560E-01
  6.77869560E-01 -1.18390283E+01  7.68069945E+00  6.77869560E-01  2.12472018E+00
  6.77869560E-01  6.77869560E-01 -1.18390283E+01  7.68069945E+00  6.77869560E-01
  2.12472018E+00  6.77869560E-01  6.77869560E-01 -1.18390283E+01  7.68069945E+00
  6.77869560E-01  2.12472018E+00  6.77869560E-01  6.77869560E-01 -1.18390283E+01
  7.68069945E+00  6.77869560E-01  2.12472018E+00  6.77869560E-01  6.77869560E-01
 -1.18390283E+01  7.68069945E+00  6.77869560E-01  2.12472018E+00  6.77869560E-01
  6.77869560E-01 -1.18390283E+01  7.68069945E+00  6.77869560E-01  2.12472018E+00
  6.77869560E-01  6.77869560E-01 -1.18390283E+01  7.68069945E+00  6.77869560E-01
  2.12472018E+00  6.77869560E-01  6.77869560E-01 -1.18390283E+01  7.68069945E+00
  6.77869560E-01  2.12472018E+00  6.77869560E-01  6.77869560E-01 -1.18390283E+01
  7.68069945E+00  6.77869560E-01  2.12472018E+00  6.77869560E-01  6.77869560E-01
 -1.18390283E+01  7.68069945E+00  6.77869560E-01  2.12472018E+00  6.77869560E-01
  6.77869560E-01 -1.18390283E+01  7.68069945E+00  6.77869560E-01  2.12472018E+00
  6.77869560E-01  6.77869560E-01 -1.18390283E+01  7.68069945E+00  6.77869560E-01
  2.12472018E+00  6.77869560E-01  6.77869560E-01 -1.18390283E+01  7.68069945E+00
  6.77869560E-01  2.12472018E+00  6.77869560E-01  6.77869560E-01 -1.18390283E+01
  7.68069945E+00  6.77869560E-01  2.12472018E+00  6.77869560E-01  6.77869560E-01
 -1.18390283E+01  7.68069945E+00  6.77869560E-01  2.12472018E+00  6.77869560E-01
  6.77869560E-01 -1.18390283E+01  7.68069945E+00  6.77869560E-01  2.12472018E+00
  6.77869560E-01  6.77869560E-01 -1.18390283E+01  7.68069945E+00  6.77869560E-01
  2.12472018E+00  6.77869560E-01  6.77869560E-01 -1.18390283E+01  7.68069945E+00
  6.77869560E-01  2.12472018E+00  6.77869560E-01  6.77869560E-01 -1.18390283E+01
  7.68069945E+00  6.77869560E-01  2.12472018E+00  6.77869560E-01  6.77869560E-01
 -1.18390283E+01  7.68069945E+00  6.77869560E-01  2.12472018E+00  6.77869560E-01
  6.77869560E-01 -1.18390283E+01  7.68069945E+00  6.77869560E-01  2.12472018E+00
  6.77869560E-01  6.77869560E-01 -1.18390283E+01  7.68069945E+00  6.77869560E-01
  2.12472018E+00  6.77869560E-01  6.77869560E-01 -1.18390283E+01  7.68069945E+00
  6.77869560E-01  2.12472018E+00  6.77869560E-01  6.77869560E-01 -1.18390283E+01
  7.68069945E+00  6.77869560E-01  2.12472018E+00  6.77869560E-01  6.77869560E-01
 -1.18390283E+01  7.68069945E+00  6.77869560E-01  2.12472018E+00  6.77869560E-01
  6.77869560E-01 -1.18390283E+01  7.68069945E+00  6.77869560E-01  2.12472018E+00
  6.77869560E-01  6.77869560E-01 -1.18390283E+01  7.68069945E+00  6.77869560E-01
  2.12472018E+00  6.77869560E-01  6.77869560E-01 -1.18390283E+01  7.68069945E+00
  6.77869560E-01  2.12472018E+00  6.77869560E-01  6.77869560E-01 -1.18390283E+01
  7.68069945E+00  6.77869560E-01  2.12472018E+00  6.77869560E-01  6.77869560E-01
 -1.18390283E+01  7.68069945E+00  6.77869560E-01  2.12472018E+00  6.77869560E-01
  6.77869560E-01 -1.18390283E+01  7.68069945E+00  6.77869560E-01  2.12472018E+00
  6.77869560E-01  6.77869560E-01 -1.18390283E+01  7.68069945E+00  6.77869560E-01
  2.12472018E+00  6.77869560E-01  6.77869560E-01 -1.18390283E+01  7.68069945E+00
  6.77869560E-01  2.12472018E+00  6.77869560E-01  6.77869560E-01 -1.18390283E+01
  7.68069945E+00  6.77869560E-01  2.12472018E+00  6.77869560E-01  6.77869560E-01
 -1.18390283E+01  7.68069945E+00  6.77869560E-01  2.12472018E+00  6.77869560E-01
  6.77869560E-01 -1.18390283E+01  7.68069945E+00  6.77869560E-01  2.12472018E+00
  6.77869560E-01  6.77869560E-01 -1.18390283E+01  7.68069945E+00  6.77869560E-01
  2.12472018E+00  6.77869560E-01  6.77869560E-01 -1.18390283E+01  7.68069945E+00
  6.77869560E-01  2.12472018E+00  6.77869560E-01  6.77869560E-01 -1.18390283E+01
  7.68069945E+00  6.77869560E-01  2.12472018E+00  6.77869560E-01  6.77869560E-01
 -1.18390283E+01  7.68069945E+00  6.77869560E-01  2.12472018E+00  6.77869560E-01
  6.77869560E-01 -1.18390283E+01  7.68069945E+00  6.77869560E-01  2.12472018E+00
  6.77869560E-01  6.77869560E-01 -1.18390283E+01  7.68069945E+00  6.77869560E-01
  2.12472018E+00  6.77869560E-01  6.77869560E-01 -1.18390283E+01  7.68069945E+00
  6.77869560E-01  2.12472018E+00  6.77869560E-01  6.77869560E-01 -1.18390283E+01
  7.68069945E+00  6.77869560E-01  2.12472018E+00  6.77869560E-01  6.77869560E-01
 -1.18390283E+01  7.68069945E+00  6.77869560E-01  2.12472018E+00  6.77869560E-01
  6.77869560E-01 -1.18390283E+01  7.68069945E+00  6.77869560E-01  2.12472018E+00
  6.77869560E-01  6.77869560E-01 -1.18390283E+01  7.68069945E+00  6.77869560E-01
  2.12472018E+00  6.77869560E-01  6.77869560E-01 -1.18390283E+01  7.68069945E+00
  6.77869560E-01  2.12472018E+00  6.77869560E-01  6.77869560E-01 -1.18390283E+01
  7.68069945E+00  6.77869560E-01  2.12472018E+00  6.77869560E-01  6.77869560E-01
 -1.18390283E+01  7.68069945E+00  6.77869560E-01  2.12472018E+00  6.77869560E-01
  6.77869560E-01 -1.18390283E+01  7.68069945E+00  6.77869560E-01  2.12472018E+00
  6.77869560E-01  6.77869560E-01 -1.18390283E+01  7.68069945E+00  6.77869560E-01
  2.12472018E+00  6.77869560E-01  6.77869560E-01 -1.18390283E+01  7.68069945E+00
  6.77869560E-01  2.12472018E+00  6.77869560E-01  6.77869560E-01 -1.18390283E+01
  7.68069945E+00  6.77869560E-01  2.12472018E+00  6.77869560E-01  6.77869560E-01
 -1.18390283E+01  7.68069945E+00  6.77869560E-01  2.12472018E+00  6.77869560E-01
  6.77869560E-01 -1.18390283E+01  7.68069945E+00  6.77869560E-01  2.12472018E+00
  6.77869560E-01  6.77869560E-01 -1.18390283E+01  7.68069945E+00  6.77869560E-01
  2.12472018E+00  6.77869560E-01  6.77869560E-01 -1.18390283E+01  7.68069945E+00
  6.77869560E-01  2.12472018E+00  6.77869560E-01  6.77869560E-01 -1.18390283E+01
  7.68069945E+00  6.77869560E-01  2.12472018E+00  6.77869560E-01  6.77869560E-01
 -1.18390283E+01  7.68069945E+00  6.77869560E-01  2.12472018E+00  6.77869560E-01
  6.77869560E-01 -1.18390283E+01  7.68069945E+00  6.77869560E-01  2.12472018E+00
  6.77869560E-01  6.77869560E-01 -1.18390283E+01  7.68069945E+00  6.77869560E-01
  2.12472018E+00  6.77869560E-01  6.77869560E-01 -1.18390283E+01  7.68069945E+00
  6.77869560E-01  2.12472018E+00  6.77869560E-01  6.77869560E-01 -1.18390283E+01
  7.68069945E+00  6.77869560E-01  2.12472018E+00  6.77869560E-01  6.77869560E-01
 -1.18390283E+01  7.68069945E+00  6.77869560E-01  2.12472018E+00  6.77869560E-01
  6.77869560E-01 -1.18390283E+01  7.68069945E+00  6.77869560E-01  2.12472018E+00
  6.77869560E-01  6.77869560E-01 -1.18390283E+01  7.68069945E+00  6.77869560E-01
  2.12472018E+00  6.77869560E-01  6.77869560E-01 -1.18390283E+01  7.68069945E+00
  6.77869560E-01  2.12472018E+00  6.77869560E-01  6.77869560E-01 -1.18390283E+01
  7.68069945E+00  6.77869560E-01  2.12472018E+00  6.77869560E-01  6.77869560E-01
 -1.18390283E+01  7.68069945E+00  6.77869560E-01  2.12472018E+00  6.77869560E-01
  6.77869560E-01 -1.18390283E+01  7.68069945E+00  6.77869560E-01  2.12472018E+00
  6.77869560E-01  6.77869560E-01 -1.18390283E+01  7.68069945E+00  6.77869560E-01
  2.12472018E+00  6.77869560E-01  6.77869560E-01 -1.18390283E+01  7.68069945E+00
  6.77869560E-01  2.12472018E+00  6.77869560E-01  6.77869560E-01 -1.18390283E+01
  7.68069945E+00  6.77869560E-01  2.12472018E+00  6.77869560E-01  6.77869560E-01
 -1.18390283E+01  7.68069945E+00
%FLAG ATOMIC_NUMBER                                                             
%FORMAT(10I8)                                                                   
       7       1       6       1       6       8       6       1       1       6
       1       1       1       6       8       7       6       1       1       1
       6       1       1       6       8       7       6       1       1       1
       6       1       6       1       1       6       1       6       1       1
       1       6       1       1       1       7       1       6       1       6
       8       6       1       6       1       1       1       6       1       1
       1       6       8       7       6       1       1       1       6       1
       6       1       1       6       1       6       1       1       1       6
       1       1       1       7       1       6       1       6       1       1
       1       6       8       6       8       7       1       6       1       6
       1       1       1       6       8       7       6       1       1       1
       6       1       6       1       1       6       1       6       1       1
       1       6       1       1       1       6       8       7       6       1
       1       1       6       1       6       1       1       6       1       6
       1       1       1       6       1       1       1       6       8       7
       6       1       1       1       6       1       6       1       8       1
       6       1       6       1       6       1       1       1       6       1
       1       6       1       6       1       1       1       6       8       7
       6       1       1       1       6       1       6       1       6       1
       1       1       6       1       1       1       1       6       1       1
       8       1       1       6       1       1       8       1       1       6
       1       1       8       1       1       6       1       1       8       1
       1       6       1       1       8       1       1       6       1       1
       8       1       1       6       1       1       8       1       1       6
       1       1       8       1       1       6       1       1       8       1
       1       6       1       1       8       1       1       6       1       1
       8       1       1       6       1       1       8       1       1       6
       1       1       8       1       1       6       1       1       8       1
       1       6       1       1       8       1       1       6       1       1
       8       1       1       6       1       1       8       1       1       6
       1       1       8       1       1       6       1       1       8       1
       1       6       1       1       8       1       1       6       1       1
       8       1       1       6       1       1       8       1       1       6
       1       1       8       1       1       6       1       1       8       1
       1       6       1       1       8       1       1       6       1       1
       8       1       1       6       1       1       8       1       1       6
       1       1       8       1       1       6       1       1       8       1
       1       6       1       1       8       1       1       6       1       1
       8       1       1       6       1       1       8       1       1       6
       1       1       8       1       1       6       1       1       8       1
       1       6       1       1       8       1       1       6       1       1
       8       1       1       6       1       1       8       1       1       6
       1       1       8       1       1       6       1       1       8       1
       1       6       1       1       8       1       1       6       1       1
       8       1       1       6       1       1       8       1       1       6
       1       1       8       1       1       6       1       1       8       1
       1       6       1       1       8       1       1       6       1       1
       8       1       1       6       1       1       8       1       1       6
       1       1       8       1       1       6       1       1       8       1
       1       6       1       1       8       1       1       6       1       1
       8       1       1       6       1       1       8       1       1       6
       1       1       8       1       1       6       1       1       8       1
       1       6       1       1       8       1       1       6       1       1
       8       1       1       6       1       1       8       1       1       6
       1       1       8       1       1       6       1       1       8       1
       1       6       1       1       8       1       1       6       1       1
       8       1       1       6       1       1       8       1       1       6
       1       1       8       1       1       6       1       1       8       1
       1       6       1       1       8       1       1       6       1       1
       8       1       1       6       1       1       8       1       1       6
       1       1       8       1       1       6       1       1       8       1
       1       6       1       1       8       1       1       6       1       1
       8       1       1       6       1       1       8       1       1       6
       1       1       8       1       1       6       1       1       8       1
       1       6       1       1       8       1       1       6       1       1
       8       1       1       6       1       1       8       1       1       6
       1       1       8       1       1       6       1       1       8       1
       1       6       1       1       8       1       1       6       1       1
       8       1       1       6       1       1       8       1       1       6
       1       1       8       1       1       6       1       1       8       1
       1       6       1       1       8       1       1       6       1       1
       8       1       1       6       1       1       8       1       1       6
       1       1       8       1       1       6       1       1       8       1
       1       6       1       1       8       1       1       6       1       1
       8       1       1       6       1       1       8       1       1       6
       1       1       8       1       1       6       1       1       8       1
       1       6       1       1       8       1       1       6       1       1
       8       1       1       6       1       1       8       1       1       6
       1       1       8       1       1       6       1       1       8       1
       1       6       1       1       8       1       1       6       1       1
       8       1       1       6       1       1       8       1       1       6
       1       1       8       1       1       6       1       1       8       1
       1       6       1       1       8       1       1       6       1       1
       8       1       1       6       1       1       8       1       1       6
       1       1       8       1       1       6       1       1       8       1
       1       6       1       1       8       1       1       6       1       1
       8       1       1       6       1       1       8       1       1       6
       1       1       8       1       1       6       1       1       8       1
       1       6       1       1       8       1       1       6       1       1
       8       1       1       6       1       1       8       1       1       6
       1       1       8       1       1       6       1       1       8       1
       1       6       1       1       8       1       1       6       1       1
       8       1       1       6       1       1       8       1       1       6
       1       1       8       1       1       6       1       1       8       1
       1       6       1       1       8       1       1       6       1       1
       8       1       1       6       1       1       8       1       1       6
       1       1       8       1       1       6       1       1       8       1
       1       6       1       1       8       1       1       6       1       1
       8       1       1       6       1       1       8       1       1       6
       1       1       8       1       1       6       1       1       8       1
       1       6       1       1       8       1       1       6       1       1
       8       1       1       6       1       1       8       1       1       6
       1       1       8       1       1       6       1       1       8       1
       1       6       1       1       8       1       1       6       1       1
       8       1       1       6       1       1       8       1       1       6
       1       1       8       1       1       6       1       1       8       1
       1       6       1       1       8       1       1       6       1       1
       8       1       1       6       1       1       8       1       1       6
       1       1       8       1       1       6       1       1       8       1
       1       6       1       1       8       1       1       6       1       1
       8       1       1       6       1       1       8       1       1       6
       1       1       8       1       1       6       1       1       8       1
       1       6       1       1       8       1       1       6       1       1
       8       1       1       6       1       1       8       1       1       6
       1       1       8       1       1       6       1       1       8       1
       1       6       1       1       8       1       1       6       1       1
       8       1       1       6       1       1       8       1       1       6
       1       1       8       1       1       6       1       1       8       1
       1       6       1       1       8       1       1       6       1       1
       8       1       1       6       1       1       8       1       1       6
       1       1       8       1       1       6       1       1       8       1
       1       6       1       1       8       1       1       6       1       1
       8       1       1       6       1       1       8       1       1       6
       1       1       8       1       1       6       1       1       8       1
       1       6       1       1       8       1       1       6       1       1
       8       1       1       6       1       1       8       1       1       6
       1       1       8       1       1       6       1       1       8       1
       1       6       1       1       8       1       1       6       1       1
       8       1       1       6       1       1       8       1       1       6
       1       1       8       1       1       6       1       1       8       1
       1       6       1       1       8       1       1       6       1       1
       8       1       1       6       1       1       8       1       1       6
       1       1       8       1       1       6       1       1       8       1
       1       6       1       1       8       1       1       6       1       1
       8       1       1       6       1       1       8       1       1       6
       1       1       8       1       1       6       1       1       8       1
       1       6       1       1       8       1       1       6       1       1
       8       1       1       6       1       1       8       1       1       6
       1       1       8       1       1       6       1       1       8       1
       1       6       1       1       8       1       1       6       1       1
       8       1       1       6       1       1       8       1       1       6
       1       1       8       1       1       6       1       1       8       1
       1       6       1       1       8       1       1       6       1       1
       8       1       1       6       1       1       8       1       1       6
       1       1       8       1       1       6       1       1       8       1
       1       6       1       1       8       1       1       6       1       1
       8       1       1       6       1       1       8       1       1       6
       1       1       8       1       1       6       1       1       8       1
       1       6       1       1       8       1       1       6       1       1
       8       1       1       6       1       1       8       1       1       6
       1       1       8       1       1       6       1       1       8       1
       1       6       1       1       8       1       1       6       1       1
       8       1       1       6       1       1       8       1       1       6
       1       1       8       1       1       6       1       1       8       1
       1       6       1       1       8       1       1       6       1       1
       8       1       1       6       1       1       8       1       1       6
       1       1       8       1       1       6       1       1       8       1
       1       6       1       1       8       1       1       6       1       1
       8       1       1       6       1       1       8       1       1       6
       1       1       8       1       1       6       1       1       8       1
       1       6       1       1       8       1       1       6       1       1
       8       1       1       6       1       1       8       1       1       6
       1       1       8       1       1       6       1       1       8       1
       1       6       1       1       8       1       1       6       1       1
       8       1       1       6       1       1       8       1       1       6
       1       1       8       1       1       6       1       1       8       1
       1       6       1       1       8       1       1       6       1       1
       8       1       1       6       1       1       8       1       1       6
       1       1       8       1       1       6       1       1       8       1
       1       6       1       1       8       1       1       6       1       1
       8       1       1       6       1       1       8       1       1       6
       1       1       8       1       1       6       1       1       8       1
       1       6       1       1       8       1       1       6       1       1
       8       1       1       6       1       1       8       1       1       6
       1       1       8       1       1       6       1       1       8       1
       1       6       1       1       8       1       1       6       1       1
       8       1       1       6       1       1       8       1       1       6
       1       1       8       1       1       6       1       1       8       1
       1       6       1       1       8       1       1       6       1       1
       8       1       1       6       1       1       8       1       1       6
       1       1       8       1       1       6       1       1       8       1
       1       6       1       1       8       1       1       6       1       1
       8       1       1       6       1       1       8       1       1       6
       1       1       8       1       1       6       1       1       8       1
       1       6       1       1       8       1       1       6       1       1
       8       1       1       6       1       1       8       1       1       6
       1       1       8       1       1       6       1       1       8       1
       1       6       1       1       8       1       1       6       1       1
       8       1       1       6       1       1       8       1       1       6
       1       1       8       1       1       6       1       1       8       1
       1       6       1       1       8       1       1       6       1       1
       8       1       1       6       1       1       8       1       1       6
       1       1       8       1       1       6       1       1       8       1
       1       6       1       1       8       1       1       6       1       1
       8       1       1       6       1       1       8       1       1       6
       1       1       8       1       1       6       1       1       8       1
       1       6       1       1       8       1       1       6       1       1
       8       1       1       6       1       1       8       1       1       6
       1       1       8       1       1       6       1       1       8       1
       1       6       1       1       8       1       1       6       1       1
       8       1       1       6       1       1       8       1       1       6
       1       1       8       1       1       6       1       1       8       1
       1       6       1       1       8       1       1       6       1       1
       8       1       1       6       1       1       8       1       1       6
       1       1       8       1       1       6       1       1       8       1
       1       6       1       1       8       1       1       6       1       1
       8       1       1       6       1       1       8       1       1       6
       1       1       8       1       1       6       1       1       8       1
       1       6       1       1       8       1       1       6       1       1
       8       1       1       6       1       1       8       1       1       6
       1       1       8       1       1       6       1       1       8       1
       1       6       1       1       8       1       1       6       1       1
       8       1       1       6       1       1       8       1       1       6
       1       1       8       1       1       6       1       1       8       1
       1       6       1       1       8       1       1       6       1       1
       8       1       1       6       1       1       8       1       1       6
       1       1       8       1       1       6       1       1       8       1
       1       6       1       1       8       1       1       6       1       1
       8       1       1       6       1       1       8       1       1       6
       1       1       8       1       1       6       1       1       8       1
       1       6       1       1       8       1       1       6       1       1
       8       1       1       6       1       1       8       1       1       6
       1       1       8       1       1       6       1       1       8       1
       1       6       1       1       8       1       1       6       1       1
       8       1       1       6       1       1       8       1       1       6
       1       1       8       1       1       6       1       1       8       1
       1       6       1       1       8       1       1       6       1       1
       8       1       1       6       1       1       8       1       1       6
       1       1       8       1       1       6       1       1       8       1
       1       6       1       1       8       1       1       6       1       1
       8       1       1       6       1       1       8       1       1       6
       1       1       8       1       1       6       1       1       8       1
       1       6       1       1       8       1       1       6       1       1
       8       1       1       6       1       1       8       1       1       6
       1       1       8       1       1       6       1       1       8       1
       1       6       1       1       8       1       1       6       1       1
       8       1       1       6       1       1       8       1       1       6
       1       1       8       1       1       6       1       1       8       1
       1       6       1       1       8       1       1       6       1       1
       8       1       1       6       1       1       8       1       1       6
       1       1       8       1       1       6       1       1       8       1
       1       6       1       1       8       1       1       6       1       1
       8       1       1       6       1       1       8       1       1       6
       1       1       8       1       1       6       1       1       8       1
       1       6       1       1       8       1       1       6       1       1
       8       1       1       6       1       1       8       1       1       6
       1       1       8       1       1       6       1       1       8       1
       1       6       1       1       8       1       1       6       1       1
       8       1       1       6       1       1       8       1       1       6
       1       1       8       1       1       6       1       1       8       1
       1       6       1       1       8       1       1       6       1       1
       8       1       1       6       1       1       8       1       1       6
       1       1       8       1       1       6       1       1       8       1
       1       6       1       1       8       1       1       6       1       1
       8       1       1       6       1       1       8       1       1       6
       1       1       8       1       1       6       1       1       8       1
       1       6       1       1       8       1       1       6       1       1
       8       1       1       6       1       1       8       1       1       6
       1       1       8       1       1       6       1       1       8       1
       1       6       1       1       8       1       1       6       1       1
       8       1       1       6       1       1       8       1       1       6
       1       1       8       1       1       6       1       1       8       1
       1       6       1       1       8       1       1       6       1       1
       8       1       1       6       1       1       8       1       1       6
       1       1       8       1       1       6       1       1       8       1
       1       6       1       1       8       1       1       6       1       1
       8       1       1       6       1       1       8       1       1       6
       1       1       8       1       1       6       1       1       8       1
       1       6       1       1       8       1       1       6       1       1
       8       1       1       6       1       1       8       1       1       6
       1       1       8       1       1       6       1       1       8       1
       1       6       1       1       8       1       1       6       1       1
       8       1       1       6       1       1       8       1       1       6
       1       1       8       1       1       6       1       1       8       1
       1       6       1       1       8       1       1       6       1       1
       8       1       1       6       1       1       8       1       1       6
       1       1       8       1       1       6       1       1       8       1
       1       6       1       1       8       1       1       6       1       1
       8       1       1       6       1       1       8       1       1       6
       1       1       8       1       1       6       1       1       8       1
       1       6       1       1       8       1       1       6       1       1
       8       1       1       6       1       1       8       1       1       6
       1       1       8       1       1       6       1       1       8       1
       1       6       1       1       8       1       1       6       1       1
       8       1       1       6       1       1       8       1       1       6
       1       1       8       1       1       6       1       1       8       1
       1       6       1       1       8       1       1       6       1       1
       8       1       1       6       1       1       8       1       1       6
       1       1       8       1       1       6       1       1       8       1
       1       6       1       1       8       1       1       6       1       1
       8       1       1       6       1       1       8       1       1       6
       1       1       8       1       1       6       1       1       8       1
       1       6       1       1       8       1       1       6       1       1
       8       1       1       6       1       1       8       1       1       6
       1       1       8       1       1       6       1       1       8       1
       1       6       1       1       8       1       1       6       1       1
       8       1       1       6       1       1       8       1       1       6
       1       1       8       1       1       6       1       1       8       1
       1       6       1       1       8       1       1       6       1       1
       8       1       1       6       1       1       8       1       1       6
       1       1       8       1       1       6       1       1       8       1
       1       6       1       1       8       1       1       6       1       1
       8       1       1       6       1       1       8       1       1       6
       1       1       8       1       1       6       1       1       8       1
       1       6       1       1       8       1       1       6       1       1
       8       1       1       6       1       1       8       1       1       6
       1       1       8       1       1       6       1       1       8       1
       1       6       1       1       8       1       1       6       1       1
       8       1       1       6       1       1       8       1       1       6
       1       1       8       1       1       6       1       1       8       1
       1       6       1       1       8       1       1       6       1       1
       8       1       1       6       1       1       8       1       1       6
       1       1       8       1       1       6       1       1       8       1
       1       6       1       1       8       1       1       6       1       1
       8       1       1       6       1       1       8       1       1       6
       1       1       8       1       1       6       1       1       8       1
       1       6       1       1       8       1       1       6       1       1
       8       1       1       6       1       1       8       1       1       6
       1       1       8       1       1       6       1       1       8       1
       1       6       1       1       8       1       1       6       1       1
       8       1       1       6       1       1       8       1       1       6
       1       1       8       1       1       6       1       1       8       1
       1       6       1       1       8       1       1       6       1       1
       8       1       1       6       1       1       8       1       1       6
       1       1       8       1       1       6       1       1       8       1
       1       6       1       1       8       1       1       6       1       1
       8       1       1       6       1       1       8       1       1       6
       1       1       8       1       1       6       1       1       8       1
       1       6       1       1       8       1       1       6       1       1
       8       1       1       6       1       1       8       1       1       6
       1       1       8       1       1       6       1       1       8       1
       1       6       1       1       8       1       1       6       1       1
       8       1       1       6       1       1       8       1       1       6
       1       1       8       1       1       6       1       1       8       1
       1       6       1       1       8       1       1       6       1       1
       8       1       1       6       1       1       8       1       1       6
       1       1       8       1       1       6       1       1       8       1
       1       6       1       1       8       1       1       6       1       1
       8       1       1       6       1       1       8       1       1       6
       1       1       8       1       1       6       1       1       8       1
       1       6       1       1       8       1       1       6       1       1
       8       1       1       6       1       1       8       1       1       6
       1       1       8       1       1       6       1       1       8       1
       1       6       1       1       8       1       1       6       1       1
       8       1       1       6       1       1       8       1       1       6
       1       1       8       1       1       6       1       1       8       1
       1       6       1       1       8       1       1       6       1       1
       8       1       1       6       1       1       8       1       1       6
       1       1       8       1       1       6       1       1       8       1
       1       6       1       1       8       1       1       6       1       1
       8       1       1       6       1       1       8       1       1       6
       1       1       8       1       1       6       1       1       8       1
       1       6       1       1       8       1       1       6       1       1
       8       1       1       6       1       1       8       1       1       6
       1       1       8       1       1       6       1       1       8       1
       1       6       1       1       8       1       1       6       1       1
       8       1       1       6       1       1       8       1       1       6
       1       1       8       1       1       6       1       1       8       1
       1       6       1       1       8       1       1       6       1       1
       8       1       1       6       1       1       8       1       1       6
       1       1       8       1       1       6       1       1       8       1
       1       6       1       1       8       1       1       6       1       1
       8       1       1       6       1       1       8       1       1       6
       1       1       8       1       1       6       1       1       8       1
       1       6       1       1       8       1       1       6       1       1
       8       1       1       6       1       1       8       1       1       6
       1       1       8       1       1       6       1       1       8       1
       1       6       1       1       8       1       1       6       1       1
       8       1       1       6       1       1       8       1       1       6
       1       1       8       1       1       6       1       1       8       1
       1       6       1       1       8       1       1       6       1       1
       8       1       1       6       1       1       8       1       1       6
       1       1       8       1       1       6       1       1       8       1
       1       6       1       1       8       1       1       6       1       1
       8       1       1       6       1       1       8       1       1       6
       1       1       8       1       1       6       1       1       8       1
       1       6       1       1       8       1       1       6       1       1
       8       1       1       6       1       1       8       1       1       6
       1       1       8       1       1       6       1       1       8       1
       1       6       1       1       8       1       1       6       1       1
       8       1       1       6       1       1       8       1       1       6
       1       1       8       1       1       6       1       1       8       1
       1       6       1       1       8       1       1       6       1       1
       8       1       1       6       1       1       8       1       1       6
       1       1       8       1       1       6       1       1       8       1
       1       6       1       1       8       1       1       6       1       1
       8       1       1       6       1       1       8       1       1       6
       1       1       8       1       1       6       1       1       8       1
       1       6       1       1       8       1       1       6       1       1
       8       1       1       6       1       1       8       1       1       6
       1       1       8       1       1       6       1       1       8       1
       1       6       1       1       8       1       1       6       1       1
       8       1       1       6       1       1       8       1       1       6
       1       1       8       1       1       6       1       1       8       1
       1       6       1       1       8       1       1       6       1       1
       8       1       1       6       1       1       8       1       1       6
       1       1       8       1       1       6       1       1       8       1
       1       6       1       1       8       1       1       6       1       1
       8       1       1       6       1       1       8       1       1       6
       1       1       8       1       1       6       1       1       8       1
       1       6       1       1       8       1       1       6       1       1
       8       1       1       6       1       1       8       1       1       6
       1       1       8       1       1       6       1       1       8       1
       1       6       1       1       8       1       1       6       1       1
       8       1       1       6       1       1       8       1       1       6
       1       1       8       1       1       6       1       1       8       1
       1       6       1       1       8       1       1       6       1       1
       8       1       1       6       1       1       8       1       1       6
       1       1       8       1       1       6       1       1       8       1
       1       6       1       1       8       1       1       6       1       1
       8       1       1       6       1       1       8       1       1       6
       1       1       8       1       1       6       1       1       8       1
       1       6       1       1       8       1       1       6       1       1
       8       1       1       6       1       1       8       1       1       6
       1       1       8       1       1       6       1       1       8       1
       1       6       1       1       8       1       1       6       1       1
       8       1       1       6       1       1       8       1       1       6
       1       1       8       1       1       6       1       1       8       1
       1       6       1       1       8       1       1       6       1       1
       8       1       1       6       1       1       8       1       1       6
       1       1       8       1       1       6       1       1       8       1
       1       6       1       1       8       1       1       6       1       1
       8       1       1       6       1       1       8       1       1       6
       1       1       8       1       1       6       1       1       8       1
       1       6       1       1       8       1       1       6       1       1
       8       1       1       6       1       1       8       1       1       6
       1       1       8       1       1       6       1       1       8       1
       1       6       1       1       8       1       1       6       1       1
       8       1       1       6       1       1       8       1       1       6
       1       1       8       1       1       6       1       1       8       1
       1       6       1       1       8       1       1       6       1       1
       8       1       1       6       1       1       8       1       1       6
       1       1       8       1       1       6       1       1       8       1
       1       6       1       1       8       1       1       6       1       1
       8       1       1       6       1       1       8       1       1       6
       1       1       8       1       1       6       1       1       8       1
       1       6       1       1       8       1       1       6       1       1
       8       1       1       6       1       1       8       1       1       6
       1       1       8       1       1       6       1       1       8       1
       1       6       1       1       8       1       1       6       1       1
       8       1       1       6       1       1       8       1       1       6
       1       1       8       1       1       6       1       1       8       1
       1       6       1       1       8       1       1       6       1       1
       8       1       1       6       1       1       8       1       1       6
       1       1       8       1       1       6       1       1       8       1
       1       6       1       1       8       1       1       6       1       1
       8       1       1       6       1       1       8       1       1       6
       1       1       8       1       1       6       1       1       8       1
       1       6       1       1       8       1       1       6       1       1
       8       1       1       6       1       1       8       1       1       6
       1       1       8       1       1       6       1       1       8       1
       1       6       1       1       8       1       1       6       1       1
       8       1       1       6       1       1       8       1       1       6
       1       1       8       1       1       6       1       1       8       1
       1       6       1       1       8       1       1       6       1       1
       8       1       1       6       1       1       8       1       1       6
       1       1       8       1       1       6       1       1       8       1
       1       6       1       1       8       1       1       6       1       1
       8       1       1       6       1       1       8       1       1       6
       1       1       8       1       1       6       1       1       8       1
       1       6       1       1       8       1       1       6       1       1
       8       1       1       6       1       1       8       1       1       6
       1       1       8       1       1       6       1       1       8       1
       1       6       1       1       8       1       1       6       1       1
       8       1       1       6       1       1       8       1       1       6
       1       1       8       1       1       6       1       1       8       1
       1       6       1       1       8       1       1       6       1       1
       8       1       1       6       1       1       8       1       1       6
       1       1       8       1       1       6       1       1       8       1
       1       6       1       1       8       1       1       6       1       1
       8       1       1       6       1       1       8       1       1       6
       1       1       8       1       1       6       1       1       8       1
       1       6       1       1       8       1       1       6       1       1
       8       1       1       6       1       1       8       1       1       6
       1       1       8       1       1       6       1       1       8       1
       1       6       1       1       8       1       1       6       1       1
       8       1       1       6       1       1       8       1       1       6
       1       1       8       1       1       6       1       1       8       1
       1       6       1       1       8       1       1       6       1       1
       8       1       1       6       1       1       8       1       1       6
       1       1       8       1       1       6       1       1       8       1
       1       6       1       1       8       1       1       6       1       1
       8       1       1       6       1       1       8       1       1       6
       1       1       8       1       1       6       1       1       8       1
       1       6       1       1       8       1       1       6       1       1
       8       1       1       6       1       1       8       1       1       6
       1       1       8       1       1       6       1       1       8       1
       1       6       1       1       8       1       1       6       1       1
       8       1       1       6       1       1       8       1       1       6
       1       1       8       1       1       6       1       1       8       1
       1       6       1       1       8       1       1       6       1       1
       8       1       1       6       1       1       8       1       1       6
       1       1       8       1       1       6       1       1       8       1
       1       6       1       1       8       1       1       6       1       1
       8       1       1       6       1       1       8       1       1       6
       1       1       8       1       1       6       1       1       8       1
       1       6       1       1       8       1       1       6       1       1
       8       1       1       6       1       1       8       1       1       6
       1       1       8       1       1       6       1       1       8       1
       1       6       1       1       8       1       1       6       1       1
       8       1       1       6       1       1       8       1       1       6
       1       1       8       1       1       6       1       1       8       1
       1       6       1       1       8       1       1       6       1       1
       8       1       1       6       1       1       8       1       1       6
       1       1       8       1       1       6       1       1       8       1
       1       6       1       1       8       1       1       6       1       1
       8       1       1       6       1       1       8       1       1       6
       1       1       8       1       1       6       1       1       8       1
       1       6       1       1       8       1       1       6       1       1
       8       1       1       6       1       1       8       1       1       6
       1       1       8       1       1       6       1       1       8       1
       1       6       1       1       8       1       1       6       1       1
       8       1       1       6       1       1       8       1       1       6
       1       1       8       1       1       6       1       1       8       1
       1       6       1       1       8       1       1       6       1       1
       8       1       1       6       1       1       8       1       1       6
       1       1       8       1       1       6       1       1       8       1
       1       6       1       1       8       1       1       6       1       1
       8       1       1       6       1       1       8       1       1       6
       1       1       8       1       1       6       1       1       8       1
       1       6       1       1       8       1       1       6       1       1
       8       1
%FLAG MASS                                                                      
%FORMAT(5E16.8)                                                                 
  1.40100000E+01  1.00800000E+00  1.20100000E+01  1.00800000E+00  1.20100000E+01
  1.60000000E+01  1.20100000E+01  1.00800000E+00  1.00800000E+00  1.20100000E+01
  1.00800000E+00  1.00800000E+00  1.00800000E+00  1.20100000E+01  1.60000000E+01
  1.40100000E+01  1.20100000E+01  1.00800000E+00  1.00800000E+00  1.00800000E+00
  1.20100000E+01  1.00800000E+00  1.00800000E+00  1.20100000E+01  1.60000000E+01
  1.40100000E+01  1.20100000E+01  1.00800000E+00  1.00800000E+00  1.00800000E+00
  1.20100000E+01  1.00800000E+00  1.20100000E+01  1.00800000E+00  1.00800000E+00
  1.20100000E+01  1.00800000E+00  1.20100000E+01  1.00800000E+00  1.00800000E+00
  1.00800000E+00  1.20100000E+01  1.00800000E+00  1.00800000E+00  1.00800000E+00
  1.40100000E+01  1.00800000E+00  1.20100000E+01  1.00800000E+00  1.20100000E+01
  1.60000000E+01  1.20100000E+01  1.00800000E+00  1.20100000E+01  1.00800000E+00
  1.00800000E+00  1.00800000E+00  1.20100000E+01  1.00800000E+00  1.00800000E+00
  1.00800000E+00  1.20100000E+01  1.60000000E+01  1.40100000E+01  1.20100000E+01
  1.00800000E+00  1.00800000E+00  1.00800000E+00  1.20100000E+01  1.00800000E+00
  1.20100000E+01  1.00800000E+00  1.00800000E+00  1.20100000E+01  1.00800000E+00
  1.20100000E+01  1.00800000E+00  1.00800000E+00  1.00800000E+00  1.20100000E+01
  1.00800000E+00  1.00800000E+00  1.00800000E+00  1.40100000E+01  1.00800000E+00
  1.20100000E+01  1.00800000E+00  1.20100000E+01  1.00800000E+00  1.00800000E+00
  1.00800000E+00  1.20100000E+01  1.60000000E+01  1.20100000E+01  1.60000000E+01
  1.40100000E+01  1.00800000E+00  1.20100000E+01  1.00800000E+00  1.20100000E+01
  1.00800000E+00  1.00800000E+00  1.00800000E+00  1.20100000E+01  1.60000000E+01
  1.40100000E+01  1.20100000E+01  1.00800000E+00  1.00800000E+00  1.00800000E+00
  1.20100000E+01  1.00800000E+00  1.20100000E+01  1.00800000E+00  1.00800000E+00
  1.20100000E+01  1.00800000E+00  1.20100000E+01  1.00800000E+00  1.00800000E+00
  1.00800000E+00  1.20100000E+01  1.00800000E+00  1.00800000E+00  1.00800000E+00
  1.20100000E+01  1.60000000E+01  1.40100000E+01  1.20100000E+01  1.00800000E+00
  1.00800000E+00  1.00800000E+00  1.20100000E+01  1.00800000E+00  1.20100000E+01
  1.00800000E+00  1.00800000E+00  1.20100000E+01  1.00800000E+00  1.20100000E+01
  1.00800000E+00  1.00800000E+00  1.00800000E+00  1.20100000E+01  1.00800000E+00
  1.00800000E+00  1.00800000E+00  1.20100000E+01  1.60000000E+01  1.40100000E+01
  1.20100000E+01  1.00800000E+00  1.00800000E+00  1.00800000E+00  1.20100000E+01
  1.00800000E+00  1.20100000E+01  1.00800000E+00  1.60000000E+01  1.00800000E+00
  1.20100000E+01  1.00800000E+00  1.20100000E+01  1.00800000E+00  1.20100000E+01
  1.00800000E+00  1.00800000E+00  1.00800000E+00  1.20100000E+01  1.00800000E+00
  1.00800000E+00  1.20100000E+01  1.00800000E+00  1.20100000E+01  1.00800000E+00
  1.00800000E+00  1.00800000E+00  1.20100000E+01  1.60000000E+01  1.40100000E+01
  1.20100000E+01  1.00800000E+00  1.00800000E+00  1.00800000E+00  1.20100000E+01
  1.00800000E+00  1.20100000E+01  1.00800000E+00  1.20100000E+01  1.00800000E+00
  1.00800000E+00  1.00800000E+00  1.20100000E+01  1.00800000E+00  1.00800000E+00
  1.00800000E+00  1.00800000E+00  1.20100000E+01  1.00800000E+00  1.00800000E+00
  1.60000000E+01  1.00800000E+00  1.00800000E+00  1.20100000E+01  1.00800000E+00
  1.00800000E+00  1.60000000E+01  1.00800000E+00  1.00800000E+00  1.20100000E+01
  1.00800000E+00  1.00800000E+00  1.60000000E+01  1.00800000E+00  1.00800000E+00
  1.20100000E+01  1.00800000E+00  1.00800000E+00  1.60000000E+01  1.00800000E+00
  1.00800000E+00  1.20100000E+01  1.00800000E+00  1.00800000E+00  1.60000000E+01
  1.00800000E+00  1.00800000E+00  1.20100000E+01  1.00800000E+00  1.00800000E+00
  1.60000000E+01  1.00800000E+00  1.00800000E+00  1.20100000E+01  1.00800000E+00
  1.00800000E+00  1.60000000E+01  1.00800000E+00  1.00800000E+00  1.20100000E+01
  1.00800000E+00  1.00800000E+00  1.60000000E+01  1.00800000E+00  1.00800000E+00
  1.20100000E+01  1.00800000E+00  1.00800000E+00  1.60000000E+01  1.00800000E+00
  1.00800000E+00  1.20100000E+01  1.00800000E+00  1.00800000E+00  1.60000000E+01
  1.00800000E+00  1.00800000E+00  1.20100000E+01  1.00800000E+00  1.00800000E+00
  1.60000000E+01  1.00800000E+00  1.00800000E+00  1.20100000E+01  1.00800000E+00
  1.00800000E+00  1.60000000E+01  1.00800000E+00  1.00800000E+00  1.20100000E+01
  1.00800000E+00  1.00800000E+00  1.60000000E+01  1.00800000E+00  1.00800000E+00
  1.20100000E+01  1.00800000E+00  1.00800000E+00  1.60000000E+01  1.00800000E+00
  1.00800000E+00  1.20100000E+01  1.00800000E+00  1.00800000E+00  1.60000000E+01
  1.00800000E+00  1.00800000E+00  1.20100000E+01  1.00800000E+00  1.00800000E+00
  1.60000000E+01  1.00800000E+00  1.00800000E+00  1.20100000E+01  1.00800000E+00
  1.00800000E+00  1.60000000E+01  1.00800000E+00  1.00800000E+00  1.20100000E+01
  1.00800000E+00  1.00800000E+00  1.60000000E+01  1.00800000E+00  1.00800000E+00
  1.20100000E+01  1.00800000E+00  1.00800000E+00  1.60000000E+01  1.00800000E+00
  1.00800000E+00  1.20100000E+01  1.00800000E+00  1.00800000E+00  1.60000000E+01
  1.00800000E+00  1.00800000E+00  1.20100000E+01  1.00800000E+00  1.00800000E+00
  1.60000000E+01  1.00800000E+00  1.00800000E+00  1.20100000E+01  1.00800000E+00
  1.00800000E+00  1.60000000E+01  1.00800000E+00  1.00800000E+00  1.20100000E+01
  1.00800000E+00  1.00800000E+00  1.60000000E+01  1.00800000E+00  1.00800000E+00
  1.20100000E+01  1.00800000E+00  1.00800000E+00  1.60000000E+01  1.00800000E+00
  1.00800000E+00  1.20100000E+01  1.00800000E+00  1.00800000E+00  1.60000000E+01
  1.00800000E+00  1.00800000E+00  1.20100000E+01  1.00800000E+00  1.00800000E+00
  1.60000000E+01  1.00800000E+00  1.00800000E+00  1.20100000E+01  1.00800000E+00
  1.00800000E+00  1.60000000E+01  1.00800000E+00  1.00800000E+00  1.20100000E+01
  1.00800000E+00  1.00800000E+00  1.60000000E+01  1.00800000E+00  1.00800000E+00
  1.20100000E+01  1.00800000E+00  1.00800000E+00  1.60000000E+01  1.00800000E+00
  1.00800000E+00  1.20100000E+01  1.00800000E+00  1.00800000E+00  1.60000000E+01
  1.00800000E+00  1.00800000E+00  1.20100000E+01  1.00800000E+00  1.00800000E+00
  1.60000000E+01  1.00800000E+00  1.00800000E+00  1.20100000E+01  1.00800000E+00
  1.00800000E+00  1.60000000E+01  1.00800000E+00  1.00800000E+00  1.20100000E+01
  1.00800000E+00  1.00800000E+00  1.60000000E+01  1.00800000E+00  1.00800000E+00
  1.20100000E+01  1.00800000E+00  1.00800000E+00  1.60000000E+01  1.00800000E+00
  1.00800000E+00  1.20100000E+01  1.00800000E+00  1.00800000E+00  1.60000000E+01
  1.00800000E+00  1.00800000E+00  1.20100000E+01  1.00800000E+00  1.00800000E+00
  1.60000000E+01  1.00800000E+00  1.00800000E+00  1.20100000E+01  1.00800000E+00
  1.00800000E+00  1.60000000E+01  1.00800000E+00  1.00800000E+00  1.20100000E+01
  1.00800000E+00  1.00800000E+00  1.60000000E+01  1.00800000E+00  1.00800000E+00
  1.20100000E+01  1.00800000E+00  1.00800000E+00  1.60000000E+01  1.00800000E+00
  1.00800000E+00  1.20100000E+01  1.00800000E+00  1.00800000E+00  1.60000000E+01
  1.00800000E+00  1.00800000E+00  1.20100000E+01  1.00800000E+00  1.00800000E+00
  1.60000000E+01  1.00800000E+00  1.00800000E+00  1.20100000E+01  1.00800000E+00
  1.00800000E+00  1.60000000E+01  1.00800000E+00  1.00800000E+00  1.20100000E+01
  1.00800000E+00  1.00800000E+00  1.60000000E+01  1.00800000E+00  1.00800000E+00
  1.20100000E+01  1.00800000E+00  1.00800000E+00  1.60000000E+01  1.00800000E+00
  1.00800000E+00  1.20100000E+01  1.00800000E+00  1.00800000E+00  1.60000000E+01
  1.00800000E+00  1.00800000E+00  1.20100000E+01  1.00800000E+00  1.00800000E+00
  1.60000000E+01  1.00800000E+00  1.00800000E+00  1.20100000E+01  1.00800000E+00
  1.00800000E+00  1.60000000E+01  1.00800000E+00  1.00800000E+00  1.20100000E+01
  1.00800000E+00  1.00800000E+00  1.60000000E+01  1.00800000E+00  1.00800000E+00
  1.20100000E+01  1.00800000E+00  1.00800000E+00  1.60000000E+01  1.00800000E+00
  1.00800000E+00  1.20100000E+01  1.00800000E+00  1.00800000E+00  1.60000000E+01
  1.00800000E+00  1.00800000E+00  1.20100000E+01  1.00800000E+00  1.00800000E+00
  1.60000000E+01  1.00800000E+00  1.00800000E+00  1.20100000E+01  1.00800000E+00
  1.00800000E+00  1.60000000E+01  1.00800000E+00  1.00800000E+00  1.20100000E+01
  1.00800000E+00  1.00800000E+00  1.60000000E+01  1.00800000E+00  1.00800000E+00
  1.20100000E+01  1.00800000E+00  1.00800000E+00  1.60000000E+01  1.00800000E+00
  1.00800000E+00  1.20100000E+01  1.00800000E+00  1.00800000E+00  1.60000000E+01
  1.00800000E+00  1.00800000E+00  1.20100000E+01  1.00800000E+00  1.00800000E+00
  1.60000000E+01  1.00800000E+00  1.00800000E+00  1.20100000E+01  1.00800000E+00
  1.00800000E+00  1.60000000E+01  1.00800000E+00  1.00800000E+00  1.20100000E+01
  1.00800000E+00  1.00800000E+00  1.60000000E+01  1.00800000E+00  1.00800000E+00
  1.20100000E+01  1.00800000E+00  1.00800000E+00  1.60000000E+01  1.00800000E+00
  1.00800000E+00  1.20100000E+01  1.00800000E+00  1.00800000E+00  1.60000000E+01
  1.00800000E+00  1.00800000E+00  1.20100000E+01  1.00800000E+00  1.00800000E+00
  1.60000000E+01  1.00800000E+00  1.00800000E+00  1.20100000E+01  1.00800000E+00
  1.00800000E+00  1.60000000E+01  1.00800000E+00  1.00800000E+00  1.20100000E+01
  1.00800000E+00  1.00800000E+00  1.60000000E+01  1.00800000E+00  1.00800000E+00
  1.20100000E+01  1.00800000E+00  1.00800000E+00  1.60000000E+01  1.00800000E+00
  1.00800000E+00  1.20100000E+01  1.00800000E+00  1.00800000E+00  1.60000000E+01
  1.00800000E+00  1.00800000E+00  1.20100000E+01  1.00800000E+00  1.00800000E+00
  1.60000000E+01  1.00800000E+00  1.00800000E+00  1.20100000E+01  1.00800000E+00
  1.00800000E+00  1.60000000E+01  1.00800000E+00  1.00800000E+00  1.20100000E+01
  1.00800000E+00  1.00800000E+00  1.60000000E+01  1.00800000E+00  1.00800000E+00
  1.20100000E+01  1.00800000E+00  1.00800000E+00  1.60000000E+01  1.00800000E+00
  1.00800000E+00  1.20100000E+01  1.00800000E+00  1.00800000E+00  1.60000000E+01
  1.00800000E+00  1.00800000E+00  1.20100000E+01  1.00800000E+00  1.00800000E+00
  1.60000000E+01  1.00800000E+00  1.00800000E+00  1.20100000E+01  1.00800000E+00
  1.00800000E+00  1.60000000E+01  1.00800000E+00  1.00800000E+00  1.20100000E+01
  1.00800000E+00  1.00800000E+00  1.60000000E+01  1.00800000E+00  1.00800000E+00
  1.20100000E+01  1.00800000E+00  1.00800000E+00  1.60000000E+01  1.00800000E+00
  1.00800000E+00  1.20100000E+01  1.00800000E+00  1.00800000E+00  1.60000000E+01
  1.00800000E+00  1.00800000E+00  1.20100000E+01  1.00800000E+00  1.00800000E+00
  1.60000000E+01  1.00800000E+00  1.00800000E+00  1.20100000E+01  1.00800000E+00
  1.00800000E+00  1.60000000E+01  1.00800000E+00  1.00800000E+00  1.20100000E+01
  1.00800000E+00  1.00800000E+00  1.60000000E+01  1.00800000E+00  1.00800000E+00
  1.20100000E+01  1.00800000E+00  1.00800000E+00  1.60000000E+01  1.00800000E+00
  1.00800000E+00  1.20100000E+01  1.00800000E+00  1.00800000E+00  1.60000000E+01
  1.00800000E+00  1.00800000E+00  1.20100000E+01  1.00800000E+00  1.00800000E+00
  1.60000000E+01  1.00800000E+00  1.00800000E+00  1.20100000E+01  1.00800000E+00
  1.00800000E+00  1.60000000E+01  1.00800000E+00  1.00800000E+00  1.20100000E+01
  1.00800000E+00  1.00800000E+00  1.60000000E+01  1.00800000E+00  1.00800000E+00
  1.20100000E+01  1.00800000E+00  1.00800000E+00  1.60000000E+01  1.00800000E+00
  1.00800000E+00  1.20100000E+01  1.00800000E+00  1.00800000E+00  1.60000000E+01
  1.00800000E+00  1.00800000E+00  1.20100000E+01  1.00800000E+00  1.00800000E+00
  1.60000000E+01  1.00800000E+00  1.00800000E+00  1.20100000E+01  1.00800000E+00
  1.00800000E+00  1.60000000E+01  1.00800000E+00  1.00800000E+00  1.20100000E+01
  1.00800000E+00  1.00800000E+00  1.60000000E+01  1.00800000E+00  1.00800000E+00
  1.20100000E+01  1.00800000E+00  1.00800000E+00  1.60000000E+01  1.00800000E+00
  1.00800000E+00  1.20100000E+01  1.00800000E+00  1.00800000E+00  1.60000000E+01
  1.00800000E+00  1.00800000E+00  1.20100000E+01  1.00800000E+00  1.00800000E+00
  1.60000000E+01  1.00800000E+00  1.00800000E+00  1.20100000E+01  1.00800000E+00
  1.00800000E+00  1.60000000E+01  1.00800000E+00  1.00800000E+00  1.20100000E+01
  1.00800000E+00  1.00800000E+00  1.60000000E+01  1.00800000E+00  1.00800000E+00
  1.20100000E+01  1.00800000E+00  1.00800000E+00  1.60000000E+01  1.00800000E+00
  1.00800000E+00  1.20100000E+01  1.00800000E+00  1.00800000E+00  1.60000000E+01
  1.00800000E+00  1.00800000E+00  1.20100000E+01  1.00800000E+00  1.00800000E+00
  1.60000000E+01  1.00800000E+00  1.00800000E+00  1.20100000E+01  1.00800000E+00
  1.00800000E+00  1.60000000E+01  1.00800000E+00  1.00800000E+00  1.20100000E+01
  1.00800000E+00  1.00800000E+00  1.60000000E+01  1.00800000E+00  1.00800000E+00
  1.20100000E+01  1.00800000E+00  1.00800000E+00  1.60000000E+01  1.00800000E+00
  1.00800000E+00  1.20100000E+01  1.00800000E+00  1.00800000E+00  1.60000000E+01
  1.00800000E+00  1.00800000E+00  1.20100000E+01  1.00800000E+00  1.00800000E+00
  1.60000000E+01  1.00800000E+00  1.00800000E+00  1.20100000E+01  1.00800000E+00
  1.00800000E+00  1.60000000E+01  1.00800000E+00  1.00800000E+00  1.20100000E+01
  1.00800000E+00  1.00800000E+00  1.60000000E+01  1.00800000E+00  1.00800000E+00
  1.20100000E+01  1.00800000E+00  1.00800000E+00  1.60000000E+01  1.00800000E+00
  1.00800000E+00  1.20100000E+01  1.00800000E+00  1.00800000E+00  1.60000000E+01
  1.00800000E+00  1.00800000E+00  1.20100000E+01  1.00800000E+00  1.00800000E+00
  1.60000000E+01  1.00800000E+00  1.00800000E+00  1.20100000E+01  1.00800000E+00
  1.00800000E+00  1.60000000E+01  1.00800000E+00  1.00800000E+00  1.20100000E+01
  1.00800000E+00  1.00800000E+00  1.60000000E+01  1.00800000E+00  1.00800000E+00
  1.20100000E+01  1.00800000E+00  1.00800000E+00  1.60000000E+01  1.00800000E+00
  1.00800000E+00  1.20100000E+01  1.00800000E+00  1.00800000E+00  1.60000000E+01
  1.00800000E+00  1.00800000E+00  1.20100000E+01  1.00800000E+00  1.00800000E+00
  1.60000000E+01  1.00800000E+00  1.00800000E+00  1.20100000E+01  1.00800000E+00
  1.00800000E+00  1.60000000E+01  1.00800000E+00  1.00800000E+00  1.20100000E+01
  1.00800000E+00  1.00800000E+00  1.60000000E+01  1.00800000E+00  1.00800000E+00
  1.20100000E+01  1.00800000E+00  1.00800000E+00  1.60000000E+01  1.00800000E+00
  1.00800000E+00  1.20100000E+01  1.00800000E+00  1.00800000E+00  1.60000000E+01
  1.00800000E+00  1.00800000E+00  1.20100000E+01  1.00800000E+00  1.00800000E+00
  1.60000000E+01  1.00800000E+00  1.00800000E+00  1.20100000E+01  1.00800000E+00
  1.00800000E+00  1.60000000E+01  1.00800000E+00  1.00800000E+00  1.20100000E+01
  1.00800000E+00  1.00800000E+00  1.60000000E+01  1.00800000E+00  1.00800000E+00
  1.20100000E+01  1.00800000E+00  1.00800000E+00  1.60000000E+01  1.00800000E+00
  1.00800000E+00  1.20100000E+01  1.00800000E+00  1.00800000E+00  1.60000000E+01
  1.00800000E+00  1.00800000E+00  1.20100000E+01  1.00800000E+00  1.00800000E+00
  1.60000000E+01  1.00800000E+00  1.00800000E+00  1.20100000E+01  1.00800000E+00
  1.00800000E+00  1.60000000E+01  1.00800000E+00  1.00800000E+00  1.20100000E+01
  1.00800000E+00  1.00800000E+00  1.60000000E+01  1.00800000E+00  1.00800000E+00
  1.20100000E+01  1.00800000E+00  1.00800000E+00  1.60000000E+01  1.00800000E+00
  1.00800000E+00  1.20100000E+01  1.00800000E+00  1.00800000E+00  1.60000000E+01
  1.00800000E+00  1.00800000E+00  1.20100000E+01  1.00800000E+00  1.00800000E+00
  1.60000000E+01  1.00800000E+00  1.00800000E+00  1.20100000E+01  1.00800000E+00
  1.00800000E+00  1.60000000E+01  1.00800000E+00  1.00800000E+00  1.20100000E+01
  1.00800000E+00  1.00800000E+00  1.60000000E+01  1.00800000E+00  1.00800000E+00
  1.20100000E+01  1.00800000E+00  1.00800000E+00  1.60000000E+01  1.00800000E+00
  1.00800000E+00  1.20100000E+01  1.00800000E+00  1.00800000E+00  1.60000000E+01
  1.00800000E+00  1.00800000E+00  1.20100000E+01  1.00800000E+00  1.00800000E+00
  1.60000000E+01  1.00800000E+00  1.00800000E+00  1.20100000E+01  1.00800000E+00
  1.00800000E+00  1.60000000E+01  1.00800000E+00  1.00800000E+00  1.20100000E+01
  1.00800000E+00  1.00800000E+00  1.60000000E+01  1.00800000E+00  1.00800000E+00
  1.20100000E+01  1.00800000E+00  1.00800000E+00  1.60000000E+01  1.00800000E+00
  1.00800000E+00  1.20100000E+01  1.00800000E+00  1.00800000E+00  1.60000000E+01
  1.00800000E+00  1.00800000E+00  1.20100000E+01  1.00800000E+00  1.00800000E+00
  1.60000000E+01  1.00800000E+00  1.00800000E+00  1.20100000E+01  1.00800000E+00
  1.00800000E+00  1.60000000E+01  1.00800000E+00  1.00800000E+00  1.20100000E+01
  1.00800000E+00  1.00800000E+00  1.60000000E+01  1.00800000E+00  1.00800000E+00
  1.20100000E+01  1.00800000E+00  1.00800000E+00  1.60000000E+01  1.00800000E+00
  1.00800000E+00  1.20100000E+01  1.00800000E+00  1.00800000E+00  1.60000000E+01
  1.00800000E+00  1.00800000E+00  1.20100000E+01  1.00800000E+00  1.00800000E+00
  1.60000000E+01  1.00800000E+00  1.00800000E+00  1.20100000E+01  1.00800000E+00
  1.00800000E+00  1.60000000E+01  1.00800000E+00  1.00800000E+00  1.20100000E+01
  1.00800000E+00  1.00800000E+00  1.60000000E+01  1.00800000E+00  1.00800000E+00
  1.20100000E+01  1.00800000E+00  1.00800000E+00  1.60000000E+01  1.00800000E+00
  1.00800000E+00  1.20100000E+01  1.00800000E+00  1.00800000E+00  1.60000000E+01
  1.00800000E+00  1.00800000E+00  1.20100000E+01  1.00800000E+00  1.00800000E+00
  1.60000000E+01  1.00800000E+00  1.00800000E+00  1.20100000E+01  1.00800000E+00
  1.00800000E+00  1.60000000E+01  1.00800000E+00  1.00800000E+00  1.20100000E+01
  1.00800000E+00  1.00800000E+00  1.60000000E+01  1.00800000E+00  1.00800000E+00
  1.20100000E+01  1.00800000E+00  1.00800000E+00  1.60000000E+01  1.00800000E+00
  1.00800000E+00  1.20100000E+01  1.00800000E+00  1.00800000E+00  1.60000000E+01
  1.00800000E+00  1.00800000E+00  1.20100000E+01  1.00800000E+00  1.00800000E+00
  1.60000000E+01  1.00800000E+00  1.00800000E+00  1.20100000E+01  1.00800000E+00
  1.00800000E+00  1.60000000E+01  1.00800000E+00  1.00800000E+00  1.20100000E+01
  1.00800000E+00  1.00800000E+00  1.60000000E+01  1.00800000E+00  1.00800000E+00
  1.20100000E+01  1.00800000E+00  1.00800000E+00  1.60000000E+01  1.00800000E+00
  1.00800000E+00  1.20100000E+01  1.00800000E+00  1.00800000E+00  1.60000000E+01
  1.00800000E+00  1.00800000E+00  1.20100000E+01  1.00800000E+00  1.00800000E+00
  1.60000000E+01  1.00800000E+00  1.00800000E+00  1.20100000E+01  1.00800000E+00
  1.00800000E+00  1.60000000E+01  1.00800000E+00  1.00800000E+00  1.20100000E+01
  1.00800000E+00  1.00800000E+00  1.60000000E+01  1.00800000E+00  1.00800000E+00
  1.20100000E+01  1.00800000E+00  1.00800000E+00  1.60000000E+01  1.00800000E+00
  1.00800000E+00  1.20100000E+01  1.00800000E+00  1.00800000E+00  1.60000000E+01
  1.00800000E+00  1.00800000E+00  1.20100000E+01  1.00800000E+00  1.00800000E+00
  1.60000000E+01  1.00800000E+00  1.00800000E+00  1.20100000E+01  1.00800000E+00
  1.00800000E+00  1.60000000E+01  1.00800000E+00  1.00800000E+00  1.20100000E+01
  1.00800000E+00  1.00800000E+00  1.60000000E+01  1.00800000E+00  1.00800000E+00
  1.20100000E+01  1.00800000E+00  1.00800000E+00  1.60000000E+01  1.00800000E+00
  1.00800000E+00  1.20100000E+01  1.00800000E+00  1.00800000E+00  1.60000000E+01
  1.00800000E+00  1.00800000E+00  1.20100000E+01  1.00800000E+00  1.00800000E+00
  1.60000000E+01  1.00800000E+00  1.00800000E+00  1.20100000E+01  1.00800000E+00
  1.00800000E+00  1.60000000E+01  1.00800000E+00  1.00800000E+00  1.20100000E+01
  1.00800000E+00  1.00800000E+00  1.60000000E+01  1.00800000E+00  1.00800000E+00
  1.20100000E+01  1.00800000E+00  1.00800000E+00  1.60000000E+01  1.00800000E+00
  1.00800000E+00  1.20100000E+01  1.00800000E+00  1.00800000E+00  1.60000000E+01
  1.00800000E+00  1.00800000E+00  1.20100000E+01  1.00800000E+00  1.00800000E+00
  1.60000000E+01  1.00800000E+00  1.00800000E+00  1.20100000E+01  1.00800000E+00
  1.00800000E+00  1.60000000E+01  1.00800000E+00  1.00800000E+00  1.20100000E+01
  1.00800000E+00  1.00800000E+00  1.60000000E+01  1.00800000E+00  1.00800000E+00
  1.20100000E+01  1.00800000E+00  1.00800000E+00  1.60000000E+01  1.00800000E+00
  1.00800000E+00  1.20100000E+01  1.00800000E+00  1.00800000E+00  1.60000000E+01
  1.00800000E+00  1.00800000E+00  1.20100000E+01  1.00800000E+00  1.00800000E+00
  1.60000000E+01  1.00800000E+00  1.00800000E+00  1.20100000E+01  1.00800000E+00
  1.00800000E+00  1.60000000E+01  1.00800000E+00  1.00800000E+00  1.20100000E+01
  1.00800000E+00  1.00800000E+00  1.60000000E+01  1.00800000E+00  1.00800000E+00
  1.20100000E+01  1.00800000E+00  1.00800000E+00  1.60000000E+01  1.00800000E+00
  1.00800000E+00  1.20100000E+01  1.00800000E+00  1.00800000E+00  1.60000000E+01
  1.00800000E+00  1.00800000E+00  1.20100000E+01  1.00800000E+00  1.00800000E+00
  1.60000000E+01  1.00800000E+00  1.00800000E+00  1.20100000E+01  1.00800000E+00
  1.00800000E+00  1.60000000E+01  1.00800000E+00  1.00800000E+00  1.20100000E+01
  1.00800000E+00  1.00800000E+00  1.60000000E+01  1.00800000E+00  1.00800000E+00
  1.20100000E+01  1.00800000E+00  1.00800000E+00  1.60000000E+01  1.00800000E+00
  1.00800000E+00  1.20100000E+01  1.00800000E+00  1.00800000E+00  1.60000000E+01
  1.00800000E+00  1.00800000E+00  1.20100000E+01  1.00800000E+00  1.00800000E+00
  1.60000000E+01  1.00800000E+00  1.00800000E+00  1.20100000E+01  1.00800000E+00
  1.00800000E+00  1.60000000E+01  1.00800000E+00  1.00800000E+00  1.20100000E+01
  1.00800000E+00  1.00800000E+00  1.60000000E+01  1.00800000E+00  1.00800000E+00
  1.20100000E+01  1.00800000E+00  1.00800000E+00  1.60000000E+01  1.00800000E+00
  1.00800000E+00  1.20100000E+01  1.00800000E+00  1.00800000E+00  1.60000000E+01
  1.00800000E+00  1.00800000E+00  1.20100000E+01  1.00800000E+00  1.00800000E+00
  1.60000000E+01  1.00800000E+00  1.00800000E+00  1.20100000E+01  1.00800000E+00
  1.00800000E+00  1.60000000E+01  1.00800000E+00  1.00800000E+00  1.20100000E+01
  1.00800000E+00  1.00800000E+00  1.60000000E+01  1.00800000E+00  1.00800000E+00
  1.20100000E+01  1.00800000E+00  1.00800000E+00  1.60000000E+01  1.00800000E+00
  1.00800000E+00  1.20100000E+01  1.00800000E+00  1.00800000E+00  1.60000000E+01
  1.00800000E+00  1.00800000E+00  1.20100000E+01  1.00800000E+00  1.00800000E+00
  1.60000000E+01  1.00800000E+00  1.00800000E+00  1.20100000E+01  1.00800000E+00
  1.00800000E+00  1.60000000E+01  1.00800000E+00  1.00800000E+00  1.20100000E+01
  1.00800000E+00  1.00800000E+00  1.60000000E+01  1.00800000E+00  1.00800000E+00
  1.20100000E+01  1.00800000E+00  1.00800000E+00  1.60000000E+01  1.00800000E+00
  1.00800000E+00  1.20100000E+01  1.00800000E+00  1.00800000E+00  1.60000000E+01
  1.00800000E+00  1.00800000E+00  1.20100000E+01  1.00800000E+00  1.00800000E+00
  1.60000000E+01  1.00800000E+00  1.00800000E+00  1.20100000E+01  1.00800000E+00
  1.00800000E+00  1.60000000E+01  1.00800000E+00  1.00800000E+00  1.20100000E+01
  1.00800000E+00  1.00800000E+00  1.60000000E+01  1.00800000E+00  1.00800000E+00
  1.20100000E+01  1.00800000E+00  1.00800000E+00  1.60000000E+01  1.00800000E+00
  1.00800000E+00  1.20100000E+01  1.00800000E+00  1.00800000E+00  1.60000000E+01
  1.00800000E+00  1.00800000E+00  1.20100000E+01  1.00800000E+00  1.00800000E+00
  1.60000000E+01  1.00800000E+00  1.00800000E+00  1.20100000E+01  1.00800000E+00
  1.00800000E+00  1.60000000E+01  1.00800000E+00  1.00800000E+00  1.20100000E+01
  1.00800000E+00  1.00800000E+00  1.60000000E+01  1.00800000E+00  1.00800000E+00
  1.20100000E+01  1.00800000E+00  1.00800000E+00  1.60000000E+01  1.00800000E+00
  1.00800000E+00  1.20100000E+01  1.00800000E+00  1.00800000E+00  1.60000000E+01
  1.00800000E+00  1.00800000E+00  1.20100000E+01  1.00800000E+00  1.00800000E+00
  1.60000000E+01  1.00800000E+00  1.00800000E+00  1.20100000E+01  1.00800000E+00
  1.00800000E+00  1.60000000E+01  1.00800000E+00  1.00800000E+00  1.20100000E+01
  1.00800000E+00  1.00800000E+00  1.60000000E+01  1.00800000E+00  1.00800000E+00
  1.20100000E+01  1.00800000E+00  1.00800000E+00  1.60000000E+01  1.00800000E+00
  1.00800000E+00  1.20100000E+01  1.00800000E+00  1.00800000E+00  1.60000000E+01
  1.00800000E+00  1.00800000E+00  1.20100000E+01  1.00800000E+00  1.00800000E+00
  1.60000000E+01  1.00800000E+00  1.00800000E+00  1.20100000E+01  1.00800000E+00
  1.00800000E+00  1.60000000E+01  1.00800000E+00  1.00800000E+00  1.20100000E+01
  1.00800000E+00  1.00800000E+00  1.60000000E+01  1.00800000E+00  1.00800000E+00
  1.20100000E+01  1.00800000E+00  1.00800000E+00  1.60000000E+01  1.00800000E+00
  1.00800000E+00  1.20100000E+01  1.00800000E+00  1.00800000E+00  1.60000000E+01
  1.00800000E+00  1.00800000E+00  1.20100000E+01  1.00800000E+00  1.00800000E+00
  1.60000000E+01  1.00800000E+00  1.00800000E+00  1.20100000E+01  1.00800000E+00
  1.00800000E+00  1.60000000E+01  1.00800000E+00  1.00800000E+00  1.20100000E+01
  1.00800000E+00  1.00800000E+00  1.60000000E+01  1.00800000E+00  1.00800000E+00
  1.20100000E+01  1.00800000E+00  1.00800000E+00  1.60000000E+01  1.00800000E+00
  1.00800000E+00  1.20100000E+01  1.00800000E+00  1.00800000E+00  1.60000000E+01
  1.00800000E+00  1.00800000E+00  1.20100000E+01  1.00800000E+00  1.00800000E+00
  1.60000000E+01  1.00800000E+00  1.00800000E+00  1.20100000E+01  1.00800000E+00
  1.00800000E+00  1.60000000E+01  1.00800000E+00  1.00800000E+00  1.20100000E+01
  1.00800000E+00  1.00800000E+00  1.60000000E+01  1.00800000E+00  1.00800000E+00
  1.20100000E+01  1.00800000E+00  1.00800000E+00  1.60000000E+01  1.00800000E+00
  1.00800000E+00  1.20100000E+01  1.00800000E+00  1.00800000E+00  1.60000000E+01
  1.00800000E+00  1.00800000E+00  1.20100000E+01  1.00800000E+00  1.00800000E+00
  1.60000000E+01  1.00800000E+00  1.00800000E+00  1.20100000E+01  1.00800000E+00
  1.00800000E+00  1.60000000E+01  1.00800000E+00  1.00800000E+00  1.20100000E+01
  1.00800000E+00  1.00800000E+00  1.60000000E+01  1.00800000E+00  1.00800000E+00
  1.20100000E+01  1.00800000E+00  1.00800000E+00  1.60000000E+01  1.00800000E+00
  1.00800000E+00  1.20100000E+01  1.00800000E+00  1.00800000E+00  1.60000000E+01
  1.00800000E+00  1.00800000E+00  1.20100000E+01  1.00800000E+00  1.00800000E+00
  1.60000000E+01  1.00800000E+00  1.00800000E+00  1.20100000E+01  1.00800000E+00
  1.00800000E+00  1.60000000E+01  1.00800000E+00  1.00800000E+00  1.20100000E+01
  1.00800000E+00  1.00800000E+00  1.60000000E+01  1.00800000E+00  1.00800000E+00
  1.20100000E+01  1.00800000E+00  1.00800000E+00  1.60000000E+01  1.00800000E+00
  1.00800000E+00  1.20100000E+01  1.00800000E+00  1.00800000E+00  1.60000000E+01
  1.00800000E+00  1.00800000E+00  1.20100000E+01  1.00800000E+00  1.00800000E+00
  1.60000000E+01  1.00800000E+00  1.00800000E+00  1.20100000E+01  1.00800000E+00
  1.00800000E+00  1.60000000E+01  1.00800000E+00  1.00800000E+00  1.20100000E+01
  1.00800000E+00  1.00800000E+00  1.60000000E+01  1.00800000E+00  1.00800000E+00
  1.20100000E+01  1.00800000E+00  1.00800000E+00  1.60000000E+01  1.00800000E+00
  1.00800000E+00  1.20100000E+01  1.00800000E+00  1.00800000E+00  1.60000000E+01
  1.00800000E+00  1.00800000E+00  1.20100000E+01  1.00800000E+00  1.00800000E+00
  1.60000000E+01  1.00800000E+00  1.00800000E+00  1.20100000E+01  1.00800000E+00
  1.00800000E+00  1.60000000E+01  1.00800000E+00  1.00800000E+00  1.20100000E+01
  1.00800000E+00  1.00800000E+00  1.60000000E+01  1.00800000E+00  1.00800000E+00
  1.20100000E+01  1.00800000E+00  1.00800000E+00  1.60000000E+01  1.00800000E+00
  1.00800000E+00  1.20100000E+01  1.00800000E+00  1.00800000E+00  1.60000000E+01
  1.00800000E+00  1.00800000E+00  1.20100000E+01  1.00800000E+00  1.00800000E+00
  1.60000000E+01  1.00800000E+00  1.00800000E+00  1.20100000E+01  1.00800000E+00
  1.00800000E+00  1.60000000E+01  1.00800000E+00  1.00800000E+00  1.20100000E+01
  1.00800000E+00  1.00800000E+00  1.60000000E+01  1.00800000E+00  1.00800000E+00
  1.20100000E+01  1.00800000E+00  1.00800000E+00  1.60000000E+01  1.00800000E+00
  1.00800000E+00  1.20100000E+01  1.00800000E+00  1.00800000E+00  1.60000000E+01
  1.00800000E+00  1.00800000E+00  1.20100000E+01  1.00800000E+00  1.00800000E+00
  1.60000000E+01  1.00800000E+00  1.00800000E+00  1.20100000E+01  1.00800000E+00
  1.00800000E+00  1.60000000E+01  1.00800000E+00  1.00800000E+00  1.20100000E+01
  1.00800000E+00  1.00800000E+00  1.60000000E+01  1.00800000E+00  1.00800000E+00
  1.20100000E+01  1.00800000E+00  1.00800000E+00  1.60000000E+01  1.00800000E+00
  1.00800000E+00  1.20100000E+01  1.00800000E+00  1.00800000E+00  1.60000000E+01
  1.00800000E+00  1.00800000E+00  1.20100000E+01  1.00800000E+00  1.00800000E+00
  1.60000000E+01  1.00800000E+00  1.00800000E+00  1.20100000E+01  1.00800000E+00
  1.00800000E+00  1.60000000E+01  1.00800000E+00  1.00800000E+00  1.20100000E+01
  1.00800000E+00  1.00800000E+00  1.60000000E+01  1.00800000E+00  1.00800000E+00
  1.20100000E+01  1.00800000E+00  1.00800000E+00  1.60000000E+01  1.00800000E+00
  1.00800000E+00  1.20100000E+01  1.00800000E+00  1.00800000E+00  1.60000000E+01
  1.00800000E+00  1.00800000E+00  1.20100000E+01  1.00800000E+00  1.00800000E+00
  1.60000000E+01  1.00800000E+00  1.00800000E+00  1.20100000E+01  1.00800000E+00
  1.00800000E+00  1.60000000E+01  1.00800000E+00  1.00800000E+00  1.20100000E+01
  1.00800000E+00  1.00800000E+00  1.60000000E+01  1.00800000E+00  1.00800000E+00
  1.20100000E+01  1.00800000E+00  1.00800000E+00  1.60000000E+01  1.00800000E+00
  1.00800000E+00  1.20100000E+01  1.00800000E+00  1.00800000E+00  1.60000000E+01
  1.00800000E+00  1.00800000E+00  1.20100000E+01  1.00800000E+00  1.00800000E+00
  1.60000000E+01  1.00800000E+00  1.00800000E+00  1.20100000E+01  1.00800000E+00
  1.00800000E+00  1.60000000E+01  1.00800000E+00  1.00800000E+00  1.20100000E+01
  1.00800000E+00  1.00800000E+00  1.60000000E+01  1.00800000E+00  1.00800000E+00
  1.20100000E+01  1.00800000E+00  1.00800000E+00  1.60000000E+01  1.00800000E+00
  1.00800000E+00  1.20100000E+01  1.00800000E+00  1.00800000E+00  1.60000000E+01
  1.00800000E+00  1.00800000E+00  1.20100000E+01  1.00800000E+00  1.00800000E+00
  1.60000000E+01  1.00800000E+00  1.00800000E+00  1.20100000E+01  1.00800000E+00
  1.00800000E+00  1.60000000E+01  1.00800000E+00  1.00800000E+00  1.20100000E+01
  1.00800000E+00  1.00800000E+00  1.60000000E+01  1.00800000E+00  1.00800000E+00
  1.20100000E+01  1.00800000E+00  1.00800000E+00  1.60000000E+01  1.00800000E+00
  1.00800000E+00  1.20100000E+01  1.00800000E+00  1.00800000E+00  1.60000000E+01
  1.00800000E+00  1.00800000E+00  1.20100000E+01  1.00800000E+00  1.00800000E+00
  1.60000000E+01  1.00800000E+00  1.00800000E+00  1.20100000E+01  1.00800000E+00
  1.00800000E+00  1.60000000E+01  1.00800000E+00  1.00800000E+00  1.20100000E+01
  1.00800000E+00  1.00800000E+00  1.60000000E+01  1.00800000E+00  1.00800000E+00
  1.20100000E+01  1.00800000E+00  1.00800000E+00  1.60000000E+01  1.00800000E+00
  1.00800000E+00  1.20100000E+01  1.00800000E+00  1.00800000E+00  1.60000000E+01
  1.00800000E+00  1.00800000E+00  1.20100000E+01  1.00800000E+00  1.00800000E+00
  1.60000000E+01  1.00800000E+00  1.00800000E+00  1.20100000E+01  1.00800000E+00
  1.00800000E+00  1.60000000E+01  1.00800000E+00  1.00800000E+00  1.20100000E+01
  1.00800000E+00  1.00800000E+00  1.60000000E+01  1.00800000E+00  1.00800000E+00
  1.20100000E+01  1.00800000E+00  1.00800000E+00  1.60000000E+01  1.00800000E+00
  1.00800000E+00  1.20100000E+01  1.00800000E+00  1.00800000E+00  1.60000000E+01
  1.00800000E+00  1.00800000E+00  1.20100000E+01  1.00800000E+00  1.00800000E+00
  1.60000000E+01  1.00800000E+00  1.00800000E+00  1.20100000E+01  1.00800000E+00
  1.00800000E+00  1.60000000E+01  1.00800000E+00  1.00800000E+00  1.20100000E+01
  1.00800000E+00  1.00800000E+00  1.60000000E+01  1.00800000E+00  1.00800000E+00
  1.20100000E+01  1.00800000E+00  1.00800000E+00  1.60000000E+01  1.00800000E+00
  1.00800000E+00  1.20100000E+01  1.00800000E+00  1.00800000E+00  1.60000000E+01
  1.00800000E+00  1.00800000E+00  1.20100000E+01  1.00800000E+00  1.00800000E+00
  1.60000000E+01  1.00800000E+00  1.00800000E+00  1.20100000E+01  1.00800000E+00
  1.00800000E+00  1.60000000E+01  1.00800000E+00  1.00800000E+00  1.20100000E+01
  1.00800000E+00  1.00800000E+00  1.60000000E+01  1.00800000E+00  1.00800000E+00
  1.20100000E+01  1.00800000E+00  1.00800000E+00  1.60000000E+01  1.00800000E+00
  1.00800000E+00  1.20100000E+01  1.00800000E+00  1.00800000E+00  1.60000000E+01
  1.00800000E+00  1.00800000E+00  1.20100000E+01  1.00800000E+00  1.00800000E+00
  1.60000000E+01  1.00800000E+00  1.00800000E+00  1.20100000E+01  1.00800000E+00
  1.00800000E+00  1.60000000E+01  1.00800000E+00  1.00800000E+00  1.20100000E+01
  1.00800000E+00  1.00800000E+00  1.60000000E+01  1.00800000E+00  1.00800000E+00
  1.20100000E+01  1.00800000E+00  1.00800000E+00  1.60000000E+01  1.00800000E+00
  1.00800000E+00  1.20100000E+01  1.00800000E+00  1.00800000E+00  1.60000000E+01
  1.00800000E+00  1.00800000E+00  1.20100000E+01  1.00800000E+00  1.00800000E+00
  1.60000000E+01  1.00800000E+00  1.00800000E+00  1.20100000E+01  1.00800000E+00
  1.00800000E+00  1.60000000E+01  1.00800000E+00  1.00800000E+00  1.20100000E+01
  1.00800000E+00  1.00800000E+00  1.60000000E+01  1.00800000E+00  1.00800000E+00
  1.20100000E+01  1.00800000E+00  1.00800000E+00  1.60000000E+01  1.00800000E+00
  1.00800000E+00  1.20100000E+01  1.00800000E+00  1.00800000E+00  1.60000000E+01
  1.00800000E+00  1.00800000E+00  1.20100000E+01  1.00800000E+00  1.00800000E+00
  1.60000000E+01  1.00800000E+00  1.00800000E+00  1.20100000E+01  1.00800000E+00
  1.00800000E+00  1.60000000E+01  1.00800000E+00  1.00800000E+00  1.20100000E+01
  1.00800000E+00  1.00800000E+00  1.60000000E+01  1.00800000E+00  1.00800000E+00
  1.20100000E+01  1.00800000E+00  1.00800000E+00  1.60000000E+01  1.00800000E+00
  1.00800000E+00  1.20100000E+01  1.00800000E+00  1.00800000E+00  1.60000000E+01
  1.00800000E+00  1.00800000E+00  1.20100000E+01  1.00800000E+00  1.00800000E+00
  1.60000000E+01  1.00800000E+00  1.00800000E+00  1.20100000E+01  1.00800000E+00
  1.00800000E+00  1.60000000E+01  1.00800000E+00  1.00800000E+00  1.20100000E+01
  1.00800000E+00  1.00800000E+00  1.60000000E+01  1.00800000E+00  1.00800000E+00
  1.20100000E+01  1.00800000E+00  1.00800000E+00  1.60000000E+01  1.00800000E+00
  1.00800000E+00  1.20100000E+01  1.00800000E+00  1.00800000E+00  1.60000000E+01
  1.00800000E+00  1.00800000E+00  1.20100000E+01  1.00800000E+00  1.00800000E+00
  1.60000000E+01  1.00800000E+00  1.00800000E+00  1.20100000E+01  1.00800000E+00
  1.00800000E+00  1.60000000E+01  1.00800000E+00  1.00800000E+00  1.20100000E+01
  1.00800000E+00  1.00800000E+00  1.60000000E+01  1.00800000E+00  1.00800000E+00
  1.20100000E+01  1.00800000E+00  1.00800000E+00  1.60000000E+01  1.00800000E+00
  1.00800000E+00  1.20100000E+01  1.00800000E+00  1.00800000E+00  1.60000000E+01
  1.00800000E+00  1.00800000E+00  1.20100000E+01  1.00800000E+00  1.00800000E+00
  1.60000000E+01  1.00800000E+00  1.00800000E+00  1.20100000E+01  1.00800000E+00
  1.00800000E+00  1.60000000E+01  1.00800000E+00  1.00800000E+00  1.20100000E+01
  1.00800000E+00  1.00800000E+00  1.60000000E+01  1.00800000E+00  1.00800000E+00
  1.20100000E+01  1.00800000E+00  1.00800000E+00  1.60000000E+01  1.00800000E+00
  1.00800000E+00  1.20100000E+01  1.00800000E+00  1.00800000E+00  1.60000000E+01
  1.00800000E+00  1.00800000E+00  1.20100000E+01  1.00800000E+00  1.00800000E+00
  1.60000000E+01  1.00800000E+00  1.00800000E+00  1.20100000E+01  1.00800000E+00
  1.00800000E+00  1.60000000E+01  1.00800000E+00  1.00800000E+00  1.20100000E+01
  1.00800000E+00  1.00800000E+00  1.60000000E+01  1.00800000E+00  1.00800000E+00
  1.20100000E+01  1.00800000E+00  1.00800000E+00  1.60000000E+01  1.00800000E+00
  1.00800000E+00  1.20100000E+01  1.00800000E+00  1.00800000E+00  1.60000000E+01
  1.00800000E+00  1.00800000E+00  1.20100000E+01  1.00800000E+00  1.00800000E+00
  1.60000000E+01  1.00800000E+00  1.00800000E+00  1.20100000E+01  1.00800000E+00
  1.00800000E+00  1.60000000E+01  1.00800000E+00  1.00800000E+00  1.20100000E+01
  1.00800000E+00  1.00800000E+00  1.60000000E+01  1.00800000E+00  1.00800000E+00
  1.20100000E+01  1.00800000E+00  1.00800000E+00  1.60000000E+01  1.00800000E+00
  1.00800000E+00  1.20100000E+01  1.00800000E+00  1.00800000E+00  1.60000000E+01
  1.00800000E+00  1.00800000E+00  1.20100000E+01  1.00800000E+00  1.00800000E+00
  1.60000000E+01  1.00800000E+00  1.00800000E+00  1.20100000E+01  1.00800000E+00
  1.00800000E+00  1.60000000E+01  1.00800000E+00  1.00800000E+00  1.20100000E+01
  1.00800000E+00  1.00800000E+00  1.60000000E+01  1.00800000E+00  1.00800000E+00
  1.20100000E+01  1.00800000E+00  1.00800000E+00  1.60000000E+01  1.00800000E+00
  1.00800000E+00  1.20100000E+01  1.00800000E+00  1.00800000E+00  1.60000000E+01
  1.00800000E+00  1.00800000E+00  1.20100000E+01  1.00800000E+00  1.00800000E+00
  1.60000000E+01  1.00800000E+00  1.00800000E+00  1.20100000E+01  1.00800000E+00
  1.00800000E+00  1.60000000E+01  1.00800000E+00  1.00800000E+00  1.20100000E+01
  1.00800000E+00  1.00800000E+00  1.60000000E+01  1.00800000E+00  1.00800000E+00
  1.20100000E+01  1.00800000E+00  1.00800000E+00  1.60000000E+01  1.00800000E+00
  1.00800000E+00  1.20100000E+01  1.00800000E+00  1.00800000E+00  1.60000000E+01
  1.00800000E+00  1.00800000E+00  1.20100000E+01  1.00800000E+00  1.00800000E+00
  1.60000000E+01  1.00800000E+00  1.00800000E+00  1.20100000E+01  1.00800000E+00
  1.00800000E+00  1.60000000E+01  1.00800000E+00  1.00800000E+00  1.20100000E+01
  1.00800000E+00  1.00800000E+00  1.60000000E+01  1.00800000E+00  1.00800000E+00
  1.20100000E+01  1.00800000E+00  1.00800000E+00  1.60000000E+01  1.00800000E+00
  1.00800000E+00  1.20100000E+01  1.00800000E+00  1.00800000E+00  1.60000000E+01
  1.00800000E+00  1.00800000E+00  1.20100000E+01  1.00800000E+00  1.00800000E+00
  1.60000000E+01  1.00800000E+00  1.00800000E+00  1.20100000E+01  1.00800000E+00
  1.00800000E+00  1.60000000E+01  1.00800000E+00  1.00800000E+00  1.20100000E+01
  1.00800000E+00  1.00800000E+00  1.60000000E+01  1.00800000E+00  1.00800000E+00
  1.20100000E+01  1.00800000E+00  1.00800000E+00  1.60000000E+01  1.00800000E+00
  1.00800000E+00  1.20100000E+01  1.00800000E+00  1.00800000E+00  1.60000000E+01
  1.00800000E+00  1.00800000E+00  1.20100000E+01  1.00800000E+00  1.00800000E+00
  1.60000000E+01  1.00800000E+00  1.00800000E+00  1.20100000E+01  1.00800000E+00
  1.00800000E+00  1.60000000E+01  1.00800000E+00  1.00800000E+00  1.20100000E+01
  1.00800000E+00  1.00800000E+00  1.60000000E+01  1.00800000E+00  1.00800000E+00
  1.20100000E+01  1.00800000E+00  1.00800000E+00  1.60000000E+01  1.00800000E+00
  1.00800000E+00  1.20100000E+01  1.00800000E+00  1.00800000E+00  1.60000000E+01
  1.00800000E+00  1.00800000E+00  1.20100000E+01  1.00800000E+00  1.00800000E+00
  1.60000000E+01  1.00800000E+00  1.00800000E+00  1.20100000E+01  1.00800000E+00
  1.00800000E+00  1.60000000E+01  1.00800000E+00  1.00800000E+00  1.20100000E+01
  1.00800000E+00  1.00800000E+00  1.60000000E+01  1.00800000E+00  1.00800000E+00
  1.20100000E+01  1.00800000E+00  1.00800000E+00  1.60000000E+01  1.00800000E+00
  1.00800000E+00  1.20100000E+01  1.00800000E+00  1.00800000E+00  1.60000000E+01
  1.00800000E+00  1.00800000E+00  1.20100000E+01  1.00800000E+00  1.00800000E+00
  1.60000000E+01  1.00800000E+00  1.00800000E+00  1.20100000E+01  1.00800000E+00
  1.00800000E+00  1.60000000E+01  1.00800000E+00  1.00800000E+00  1.20100000E+01
  1.00800000E+00  1.00800000E+00  1.60000000E+01  1.00800000E+00  1.00800000E+00
  1.20100000E+01  1.00800000E+00  1.00800000E+00  1.60000000E+01  1.00800000E+00
  1.00800000E+00  1.20100000E+01  1.00800000E+00  1.00800000E+00  1.60000000E+01
  1.00800000E+00  1.00800000E+00  1.20100000E+01  1.00800000E+00  1.00800000E+00
  1.60000000E+01  1.00800000E+00  1.00800000E+00  1.20100000E+01  1.00800000E+00
  1.00800000E+00  1.60000000E+01  1.00800000E+00  1.00800000E+00  1.20100000E+01
  1.00800000E+00  1.00800000E+00  1.60000000E+01  1.00800000E+00  1.00800000E+00
  1.20100000E+01  1.00800000E+00  1.00800000E+00  1.60000000E+01  1.00800000E+00
  1.00800000E+00  1.20100000E+01  1.00800000E+00  1.00800000E+00  1.60000000E+01
  1.00800000E+00  1.00800000E+00  1.20100000E+01  1.00800000E+00  1.00800000E+00
  1.60000000E+01  1.00800000E+00  1.00800000E+00  1.20100000E+01  1.00800000E+00
  1.00800000E+00  1.60000000E+01  1.00800000E+00  1.00800000E+00  1.20100000E+01
  1.00800000E+00  1.00800000E+00  1.60000000E+01  1.00800000E+00  1.00800000E+00
  1.20100000E+01  1.00800000E+00  1.00800000E+00  1.60000000E+01  1.00800000E+00
  1.00800000E+00  1.20100000E+01  1.00800000E+00  1.00800000E+00  1.60000000E+01
  1.00800000E+00  1.00800000E+00  1.20100000E+01  1.00800000E+00  1.00800000E+00
  1.60000000E+01  1.00800000E+00  1.00800000E+00  1.20100000E+01  1.00800000E+00
  1.00800000E+00  1.60000000E+01  1.00800000E+00  1.00800000E+00  1.20100000E+01
  1.00800000E+00  1.00800000E+00  1.60000000E+01  1.00800000E+00  1.00800000E+00
  1.20100000E+01  1.00800000E+00  1.00800000E+00  1.60000000E+01  1.00800000E+00
  1.00800000E+00  1.20100000E+01  1.00800000E+00  1.00800000E+00  1.60000000E+01
  1.00800000E+00  1.00800000E+00  1.20100000E+01  1.00800000E+00  1.00800000E+00
  1.60000000E+01  1.00800000E+00  1.00800000E+00  1.20100000E+01  1.00800000E+00
  1.00800000E+00  1.60000000E+01  1.00800000E+00  1.00800000E+00  1.20100000E+01
  1.00800000E+00  1.00800000E+00  1.60000000E+01  1.00800000E+00  1.00800000E+00
  1.20100000E+01  1.00800000E+00  1.00800000E+00  1.60000000E+01  1.00800000E+00
  1.00800000E+00  1.20100000E+01  1.00800000E+00  1.00800000E+00  1.60000000E+01
  1.00800000E+00  1.00800000E+00  1.20100000E+01  1.00800000E+00  1.00800000E+00
  1.60000000E+01  1.00800000E+00  1.00800000E+00  1.20100000E+01  1.00800000E+00
  1.00800000E+00  1.60000000E+01  1.00800000E+00  1.00800000E+00  1.20100000E+01
  1.00800000E+00  1.00800000E+00  1.60000000E+01  1.00800000E+00  1.00800000E+00
  1.20100000E+01  1.00800000E+00  1.00800000E+00  1.60000000E+01  1.00800000E+00
  1.00800000E+00  1.20100000E+01  1.00800000E+00  1.00800000E+00  1.60000000E+01
  1.00800000E+00  1.00800000E+00  1.20100000E+01  1.00800000E+00  1.00800000E+00
  1.60000000E+01  1.00800000E+00  1.00800000E+00  1.20100000E+01  1.00800000E+00
  1.00800000E+00  1.60000000E+01  1.00800000E+00  1.00800000E+00  1.20100000E+01
  1.00800000E+00  1.00800000E+00  1.60000000E+01  1.00800000E+00  1.00800000E+00
  1.20100000E+01  1.00800000E+00  1.00800000E+00  1.60000000E+01  1.00800000E+00
  1.00800000E+00  1.20100000E+01  1.00800000E+00  1.00800000E+00  1.60000000E+01
  1.00800000E+00  1.00800000E+00  1.20100000E+01  1.00800000E+00  1.00800000E+00
  1.60000000E+01  1.00800000E+00  1.00800000E+00  1.20100000E+01  1.00800000E+00
  1.00800000E+00  1.60000000E+01  1.00800000E+00  1.00800000E+00  1.20100000E+01
  1.00800000E+00  1.00800000E+00  1.60000000E+01  1.00800000E+00  1.00800000E+00
  1.20100000E+01  1.00800000E+00  1.00800000E+00  1.60000000E+01  1.00800000E+00
  1.00800000E+00  1.20100000E+01  1.00800000E+00  1.00800000E+00  1.60000000E+01
  1.00800000E+00  1.00800000E+00  1.20100000E+01  1.00800000E+00  1.00800000E+00
  1.60000000E+01  1.00800000E+00  1.00800000E+00  1.20100000E+01  1.00800000E+00
  1.00800000E+00  1.60000000E+01  1.00800000E+00  1.00800000E+00  1.20100000E+01
  1.00800000E+00  1.00800000E+00  1.60000000E+01  1.00800000E+00  1.00800000E+00
  1.20100000E+01  1.00800000E+00  1.00800000E+00  1.60000000E+01  1.00800000E+00
  1.00800000E+00  1.20100000E+01  1.00800000E+00  1.00800000E+00  1.60000000E+01
  1.00800000E+00  1.00800000E+00  1.20100000E+01  1.00800000E+00  1.00800000E+00
  1.60000000E+01  1.00800000E+00  1.00800000E+00  1.20100000E+01  1.00800000E+00
  1.00800000E+00  1.60000000E+01  1.00800000E+00  1.00800000E+00  1.20100000E+01
  1.00800000E+00  1.00800000E+00  1.60000000E+01  1.00800000E+00  1.00800000E+00
  1.20100000E+01  1.00800000E+00  1.00800000E+00  1.60000000E+01  1.00800000E+00
  1.00800000E+00  1.20100000E+01  1.00800000E+00  1.00800000E+00  1.60000000E+01
  1.00800000E+00  1.00800000E+00  1.20100000E+01  1.00800000E+00  1.00800000E+00
  1.60000000E+01  1.00800000E+00  1.00800000E+00  1.20100000E+01  1.00800000E+00
  1.00800000E+00  1.60000000E+01  1.00800000E+00  1.00800000E+00  1.20100000E+01
  1.00800000E+00  1.00800000E+00  1.60000000E+01  1.00800000E+00  1.00800000E+00
  1.20100000E+01  1.00800000E+00  1.00800000E+00  1.60000000E+01  1.00800000E+00
  1.00800000E+00  1.20100000E+01  1.00800000E+00  1.00800000E+00  1.60000000E+01
  1.00800000E+00  1.00800000E+00  1.20100000E+01  1.00800000E+00  1.00800000E+00
  1.60000000E+01  1.00800000E+00  1.00800000E+00  1.20100000E+01  1.00800000E+00
  1.00800000E+00  1.60000000E+01  1.00800000E+00  1.00800000E+00  1.20100000E+01
  1.00800000E+00  1.00800000E+00  1.60000000E+01  1.00800000E+00  1.00800000E+00
  1.20100000E+01  1.00800000E+00  1.00800000E+00  1.60000000E+01  1.00800000E+00
  1.00800000E+00  1.20100000E+01  1.00800000E+00  1.00800000E+00  1.60000000E+01
  1.00800000E+00  1.00800000E+00  1.20100000E+01  1.00800000E+00  1.00800000E+00
  1.60000000E+01  1.00800000E+00  1.00800000E+00  1.20100000E+01  1.00800000E+00
  1.00800000E+00  1.60000000E+01  1.00800000E+00  1.00800000E+00  1.20100000E+01
  1.00800000E+00  1.00800000E+00  1.60000000E+01  1.00800000E+00  1.00800000E+00
  1.20100000E+01  1.00800000E+00  1.00800000E+00  1.60000000E+01  1.00800000E+00
  1.00800000E+00  1.20100000E+01  1.00800000E+00  1.00800000E+00  1.60000000E+01
  1.00800000E+00  1.00800000E+00  1.20100000E+01  1.00800000E+00  1.00800000E+00
  1.60000000E+01  1.00800000E+00  1.00800000E+00  1.20100000E+01  1.00800000E+00
  1.00800000E+00  1.60000000E+01  1.00800000E+00  1.00800000E+00  1.20100000E+01
  1.00800000E+00  1.00800000E+00  1.60000000E+01  1.00800000E+00  1.00800000E+00
  1.20100000E+01  1.00800000E+00  1.00800000E+00  1.60000000E+01  1.00800000E+00
  1.00800000E+00  1.20100000E+01  1.00800000E+00  1.00800000E+00  1.60000000E+01
  1.00800000E+00  1.00800000E+00  1.20100000E+01  1.00800000E+00  1.00800000E+00
  1.60000000E+01  1.00800000E+00  1.00800000E+00  1.20100000E+01  1.00800000E+00
  1.00800000E+00  1.60000000E+01  1.00800000E+00  1.00800000E+00  1.20100000E+01
  1.00800000E+00  1.00800000E+00  1.60000000E+01  1.00800000E+00  1.00800000E+00
  1.20100000E+01  1.00800000E+00  1.00800000E+00  1.60000000E+01  1.00800000E+00
  1.00800000E+00  1.20100000E+01  1.00800000E+00  1.00800000E+00  1.60000000E+01
  1.00800000E+00  1.00800000E+00  1.20100000E+01  1.00800000E+00  1.00800000E+00
  1.60000000E+01  1.00800000E+00  1.00800000E+00  1.20100000E+01  1.00800000E+00
  1.00800000E+00  1.60000000E+01  1.00800000E+00  1.00800000E+00  1.20100000E+01
  1.00800000E+00  1.00800000E+00  1.60000000E+01  1.00800000E+00  1.00800000E+00
  1.20100000E+01  1.00800000E+00  1.00800000E+00  1.60000000E+01  1.00800000E+00
  1.00800000E+00  1.20100000E+01  1.00800000E+00  1.00800000E+00  1.60000000E+01
  1.00800000E+00  1.00800000E+00  1.20100000E+01  1.00800000E+00  1.00800000E+00
  1.60000000E+01  1.00800000E+00  1.00800000E+00  1.20100000E+01  1.00800000E+00
  1.00800000E+00  1.60000000E+01  1.00800000E+00  1.00800000E+00  1.20100000E+01
  1.00800000E+00  1.00800000E+00  1.60000000E+01  1.00800000E+00  1.00800000E+00
  1.20100000E+01  1.00800000E+00  1.00800000E+00  1.60000000E+01  1.00800000E+00
  1.00800000E+00  1.20100000E+01  1.00800000E+00  1.00800000E+00  1.60000000E+01
  1.00800000E+00  1.00800000E+00  1.20100000E+01  1.00800000E+00  1.00800000E+00
  1.60000000E+01  1.00800000E+00  1.00800000E+00  1.20100000E+01  1.00800000E+00
  1.00800000E+00  1.60000000E+01  1.00800000E+00  1.00800000E+00  1.20100000E+01
  1.00800000E+00  1.00800000E+00  1.60000000E+01  1.00800000E+00  1.00800000E+00
  1.20100000E+01  1.00800000E+00  1.00800000E+00  1.60000000E+01  1.00800000E+00
  1.00800000E+00  1.20100000E+01  1.00800000E+00  1.00800000E+00  1.60000000E+01
  1.00800000E+00  1.00800000E+00  1.20100000E+01  1.00800000E+00  1.00800000E+00
  1.60000000E+01  1.00800000E+00  1.00800000E+00  1.20100000E+01  1.00800000E+00
  1.00800000E+00  1.60000000E+01  1.00800000E+00  1.00800000E+00  1.20100000E+01
  1.00800000E+00  1.00800000E+00  1.60000000E+01  1.00800000E+00  1.00800000E+00
  1.20100000E+01  1.00800000E+00  1.00800000E+00  1.60000000E+01  1.00800000E+00
  1.00800000E+00  1.20100000E+01  1.00800000E+00  1.00800000E+00  1.60000000E+01
  1.00800000E+00  1.00800000E+00  1.20100000E+01  1.00800000E+00  1.00800000E+00
  1.60000000E+01  1.00800000E+00  1.00800000E+00  1.20100000E+01  1.00800000E+00
  1.00800000E+00  1.60000000E+01  1.00800000E+00  1.00800000E+00  1.20100000E+01
  1.00800000E+00  1.00800000E+00  1.60000000E+01  1.00800000E+00  1.00800000E+00
  1.20100000E+01  1.00800000E+00  1.00800000E+00  1.60000000E+01  1.00800000E+00
  1.00800000E+00  1.20100000E+01  1.00800000E+00  1.00800000E+00  1.60000000E+01
  1.00800000E+00  1.00800000E+00  1.20100000E+01  1.00800000E+00  1.00800000E+00
  1.60000000E+01  1.00800000E+00  1.00800000E+00  1.20100000E+01  1.00800000E+00
  1.00800000E+00  1.60000000E+01  1.00800000E+00  1.00800000E+00  1.20100000E+01
  1.00800000E+00  1.00800000E+00  1.60000000E+01  1.00800000E+00  1.00800000E+00
  1.20100000E+01  1.00800000E+00  1.00800000E+00  1.60000000E+01  1.00800000E+00
  1.00800000E+00  1.20100000E+01  1.00800000E+00  1.00800000E+00  1.60000000E+01
  1.00800000E+00  1.00800000E+00  1.20100000E+01  1.00800000E+00  1.00800000E+00
  1.60000000E+01  1.00800000E+00  1.00800000E+00  1.20100000E+01  1.00800000E+00
  1.00800000E+00  1.60000000E+01  1.00800000E+00  1.00800000E+00  1.20100000E+01
  1.00800000E+00  1.00800000E+00  1.60000000E+01  1.00800000E+00  1.00800000E+00
  1.20100000E+01  1.00800000E+00  1.00800000E+00  1.60000000E+01  1.00800000E+00
  1.00800000E+00  1.20100000E+01  1.00800000E+00  1.00800000E+00  1.60000000E+01
  1.00800000E+00  1.00800000E+00  1.20100000E+01  1.00800000E+00  1.00800000E+00
  1.60000000E+01  1.00800000E+00  1.00800000E+00  1.20100000E+01  1.00800000E+00
  1.00800000E+00  1.60000000E+01  1.00800000E+00  1.00800000E+00  1.20100000E+01
  1.00800000E+00  1.00800000E+00  1.60000000E+01  1.00800000E+00  1.00800000E+00
  1.20100000E+01  1.00800000E+00  1.00800000E+00  1.60000000E+01  1.00800000E+00
  1.00800000E+00  1.20100000E+01  1.00800000E+00  1.00800000E+00  1.60000000E+01
  1.00800000E+00  1.00800000E+00  1.20100000E+01  1.00800000E+00  1.00800000E+00
  1.60000000E+01  1.00800000E+00  1.00800000E+00  1.20100000E+01  1.00800000E+00
  1.00800000E+00  1.60000000E+01  1.00800000E+00  1.00800000E+00  1.20100000E+01
  1.00800000E+00  1.00800000E+00  1.60000000E+01  1.00800000E+00  1.00800000E+00
  1.20100000E+01  1.00800000E+00  1.00800000E+00  1.60000000E+01  1.00800000E+00
  1.00800000E+00  1.20100000E+01  1.00800000E+00  1.00800000E+00  1.60000000E+01
  1.00800000E+00  1.00800000E+00  1.20100000E+01  1.00800000E+00  1.00800000E+00
  1.60000000E+01  1.00800000E+00  1.00800000E+00  1.20100000E+01  1.00800000E+00
  1.00800000E+00  1.60000000E+01  1.00800000E+00  1.00800000E+00  1.20100000E+01
  1.00800000E+00  1.00800000E+00  1.60000000E+01  1.00800000E+00  1.00800000E+00
  1.20100000E+01  1.00800000E+00  1.00800000E+00  1.60000000E+01  1.00800000E+00
  1.00800000E+00  1.20100000E+01  1.00800000E+00  1.00800000E+00  1.60000000E+01
  1.00800000E+00  1.00800000E+00  1.20100000E+01  1.00800000E+00  1.00800000E+00
  1.60000000E+01  1.00800000E+00  1.00800000E+00  1.20100000E+01  1.00800000E+00
  1.00800000E+00  1.60000000E+01  1.00800000E+00  1.00800000E+00  1.20100000E+01
  1.00800000E+00  1.00800000E+00  1.60000000E+01  1.00800000E+00  1.00800000E+00
  1.20100000E+01  1.00800000E+00  1.00800000E+00  1.60000000E+01  1.00800000E+00
  1.00800000E+00  1.20100000E+01  1.00800000E+00  1.00800000E+00  1.60000000E+01
  1.00800000E+00  1.00800000E+00  1.20100000E+01  1.00800000E+00  1.00800000E+00
  1.60000000E+01  1.00800000E+00  1.00800000E+00  1.20100000E+01  1.00800000E+00
  1.00800000E+00  1.60000000E+01  1.00800000E+00  1.00800000E+00  1.20100000E+01
  1.00800000E+00  1.00800000E+00  1.60000000E+01  1.00800000E+00  1.00800000E+00
  1.20100000E+01  1.00800000E+00  1.00800000E+00  1.60000000E+01  1.00800000E+00
  1.00800000E+00  1.20100000E+01  1.00800000E+00  1.00800000E+00  1.60000000E+01
  1.00800000E+00  1.00800000E+00  1.20100000E+01  1.00800000E+00  1.00800000E+00
  1.60000000E+01  1.00800000E+00  1.00800000E+00  1.20100000E+01  1.00800000E+00
  1.00800000E+00  1.60000000E+01  1.00800000E+00  1.00800000E+00  1.20100000E+01
  1.00800000E+00  1.00800000E+00  1.60000000E+01  1.00800000E+00  1.00800000E+00
  1.20100000E+01  1.00800000E+00  1.00800000E+00  1.60000000E+01  1.00800000E+00
  1.00800000E+00  1.20100000E+01  1.00800000E+00  1.00800000E+00  1.60000000E+01
  1.00800000E+00  1.00800000E+00  1.20100000E+01  1.00800000E+00  1.00800000E+00
  1.60000000E+01  1.00800000E+00  1.00800000E+00  1.20100000E+01  1.00800000E+00
  1.00800000E+00  1.60000000E+01  1.00800000E+00  1.00800000E+00  1.20100000E+01
  1.00800000E+00  1.00800000E+00  1.60000000E+01  1.00800000E+00  1.00800000E+00
  1.20100000E+01  1.00800000E+00  1.00800000E+00  1.60000000E+01  1.00800000E+00
  1.00800000E+00  1.20100000E+01  1.00800000E+00  1.00800000E+00  1.60000000E+01
  1.00800000E+00  1.00800000E+00  1.20100000E+01  1.00800000E+00  1.00800000E+00
  1.60000000E+01  1.00800000E+00  1.00800000E+00  1.20100000E+01  1.00800000E+00
  1.00800000E+00  1.60000000E+01  1.00800000E+00  1.00800000E+00  1.20100000E+01
  1.00800000E+00  1.00800000E+00  1.60000000E+01  1.00800000E+00  1.00800000E+00
  1.20100000E+01  1.00800000E+00  1.00800000E+00  1.60000000E+01  1.00800000E+00
  1.00800000E+00  1.20100000E+01  1.00800000E+00  1.00800000E+00  1.60000000E+01
  1.00800000E+00  1.00800000E+00  1.20100000E+01  1.00800000E+00  1.00800000E+00
  1.60000000E+01  1.00800000E+00  1.00800000E+00  1.20100000E+01  1.00800000E+00
  1.00800000E+00  1.60000000E+01  1.00800000E+00  1.00800000E+00  1.20100000E+01
  1.00800000E+00  1.00800000E+00  1.60000000E+01  1.00800000E+00  1.00800000E+00
  1.20100000E+01  1.00800000E+00  1.00800000E+00  1.60000000E+01  1.00800000E+00
  1.00800000E+00  1.20100000E+01  1.00800000E+00  1.00800000E+00  1.60000000E+01
  1.00800000E+00  1.00800000E+00  1.20100000E+01  1.00800000E+00  1.00800000E+00
  1.60000000E+01  1.00800000E+00  1.00800000E+00  1.20100000E+01  1.00800000E+00
  1.00800000E+00  1.60000000E+01  1.00800000E+00  1.00800000E+00  1.20100000E+01
  1.00800000E+00  1.00800000E+00  1.60000000E+01  1.00800000E+00  1.00800000E+00
  1.20100000E+01  1.00800000E+00  1.00800000E+00  1.60000000E+01  1.00800000E+00
  1.00800000E+00  1.20100000E+01  1.00800000E+00  1.00800000E+00  1.60000000E+01
  1.00800000E+00  1.00800000E+00  1.20100000E+01  1.00800000E+00  1.00800000E+00
  1.60000000E+01  1.00800000E+00  1.00800000E+00  1.20100000E+01  1.00800000E+00
  1.00800000E+00  1.60000000E+01  1.00800000E+00  1.00800000E+00  1.20100000E+01
  1.00800000E+00  1.00800000E+00  1.60000000E+01  1.00800000E+00  1.00800000E+00
  1.20100000E+01  1.00800000E+00  1.00800000E+00  1.60000000E+01  1.00800000E+00
  1.00800000E+00  1.20100000E+01  1.00800000E+00  1.00800000E+00  1.60000000E+01
  1.00800000E+00  1.00800000E+00  1.20100000E+01  1.00800000E+00  1.00800000E+00
  1.60000000E+01  1.00800000E+00  1.00800000E+00  1.20100000E+01  1.00800000E+00
  1.00800000E+00  1.60000000E+01  1.00800000E+00  1.00800000E+00  1.20100000E+01
  1.00800000E+00  1.00800000E+00  1.60000000E+01  1.00800000E+00  1.00800000E+00
  1.20100000E+01  1.00800000E+00  1.00800000E+00  1.60000000E+01  1.00800000E+00
  1.00800000E+00  1.20100000E+01  1.00800000E+00  1.00800000E+00  1.60000000E+01
  1.00800000E+00  1.00800000E+00  1.20100000E+01  1.00800000E+00  1.00800000E+00
  1.60000000E+01  1.00800000E+00  1.00800000E+00  1.20100000E+01  1.00800000E+00
  1.00800000E+00  1.60000000E+01  1.00800000E+00  1.00800000E+00  1.20100000E+01
  1.00800000E+00  1.00800000E+00  1.60000000E+01  1.00800000E+00  1.00800000E+00
  1.20100000E+01  1.00800000E+00  1.00800000E+00  1.60000000E+01  1.00800000E+00
  1.00800000E+00  1.20100000E+01  1.00800000E+00  1.00800000E+00  1.60000000E+01
  1.00800000E+00  1.00800000E+00  1.20100000E+01  1.00800000E+00  1.00800000E+00
  1.60000000E+01  1.00800000E+00  1.00800000E+00  1.20100000E+01  1.00800000E+00
  1.00800000E+00  1.60000000E+01  1.00800000E+00  1.00800000E+00  1.20100000E+01
  1.00800000E+00  1.00800000E+00  1.60000000E+01  1.00800000E+00  1.00800000E+00
  1.20100000E+01  1.00800000E+00  1.00800000E+00  1.60000000E+01  1.00800000E+00
  1.00800000E+00  1.20100000E+01  1.00800000E+00  1.00800000E+00  1.60000000E+01
  1.00800000E+00  1.00800000E+00  1.20100000E+01  1.00800000E+00  1.00800000E+00
  1.60000000E+01  1.00800000E+00  1.00800000E+00  1.20100000E+01  1.00800000E+00
  1.00800000E+00  1.60000000E+01  1.00800000E+00  1.00800000E+00  1.20100000E+01
  1.00800000E+00  1.00800000E+00  1.60000000E+01  1.00800000E+00  1.00800000E+00
  1.20100000E+01  1.00800000E+00  1.00800000E+00  1.60000000E+01  1.00800000E+00
  1.00800000E+00  1.20100000E+01  1.00800000E+00  1.00800000E+00  1.60000000E+01
  1.00800000E+00  1.00800000E+00  1.20100000E+01  1.00800000E+00  1.00800000E+00
  1.60000000E+01  1.00800000E+00  1.00800000E+00  1.20100000E+01  1.00800000E+00
  1.00800000E+00  1.60000000E+01  1.00800000E+00  1.00800000E+00  1.20100000E+01
  1.00800000E+00  1.00800000E+00  1.60000000E+01  1.00800000E+00  1.00800000E+00
  1.20100000E+01  1.00800000E+00  1.00800000E+00  1.60000000E+01  1.00800000E+00
  1.00800000E+00  1.20100000E+01  1.00800000E+00  1.00800000E+00  1.60000000E+01
  1.00800000E+00  1.00800000E+00  1.20100000E+01  1.00800000E+00  1.00800000E+00
  1.60000000E+01  1.00800000E+00  1.00800000E+00  1.20100000E+01  1.00800000E+00
  1.00800000E+00  1.60000000E+01  1.00800000E+00  1.00800000E+00  1.20100000E+01
  1.00800000E+00  1.00800000E+00  1.60000000E+01  1.00800000E+00  1.00800000E+00
  1.20100000E+01  1.00800000E+00  1.00800000E+00  1.60000000E+01  1.00800000E+00
  1.00800000E+00  1.20100000E+01  1.00800000E+00  1.00800000E+00  1.60000000E+01
  1.00800000E+00  1.00800000E+00  1.20100000E+01  1.00800000E+00  1.00800000E+00
  1.60000000E+01  1.00800000E+00  1.00800000E+00  1.20100000E+01  1.00800000E+00
  1.00800000E+00  1.60000000E+01  1.00800000E+00  1.00800000E+00  1.20100000E+01
  1.00800000E+00  1.00800000E+00  1.60000000E+01  1.00800000E+00  1.00800000E+00
  1.20100000E+01  1.00800000E+00  1.00800000E+00  1.60000000E+01  1.00800000E+00
  1.00800000E+00  1.20100000E+01  1.00800000E+00  1.00800000E+00  1.60000000E+01
  1.00800000E+00  1.00800000E+00  1.20100000E+01  1.00800000E+00  1.00800000E+00
  1.60000000E+01  1.00800000E+00  1.00800000E+00  1.20100000E+01  1.00800000E+00
  1.00800000E+00  1.60000000E+01  1.00800000E+00  1.00800000E+00  1.20100000E+01
  1.00800000E+00  1.00800000E+00  1.60000000E+01  1.00800000E+00  1.00800000E+00
  1.20100000E+01  1.00800000E+00  1.00800000E+00  1.60000000E+01  1.00800000E+00
  1.00800000E+00  1.20100000E+01  1.00800000E+00  1.00800000E+00  1.60000000E+01
  1.00800000E+00  1.00800000E+00  1.20100000E+01  1.00800000E+00  1.00800000E+00
  1.60000000E+01  1.00800000E+00  1.00800000E+00  1.20100000E+01  1.00800000E+00
  1.00800000E+00  1.60000000E+01  1.00800000E+00  1.00800000E+00  1.20100000E+01
  1.00800000E+00  1.00800000E+00  1.60000000E+01  1.00800000E+00  1.00800000E+00
  1.20100000E+01  1.00800000E+00  1.00800000E+00  1.60000000E+01  1.00800000E+00
  1.00800000E+00  1.20100000E+01  1.00800000E+00  1.00800000E+00  1.60000000E+01
  1.00800000E+00  1.00800000E+00  1.20100000E+01  1.00800000E+00  1.00800000E+00
  1.60000000E+01  1.00800000E+00  1.00800000E+00  1.20100000E+01  1.00800000E+00
  1.00800000E+00  1.60000000E+01  1.00800000E+00  1.00800000E+00  1.20100000E+01
  1.00800000E+00  1.00800000E+00  1.60000000E+01  1.00800000E+00  1.00800000E+00
  1.20100000E+01  1.00800000E+00  1.00800000E+00  1.60000000E+01  1.00800000E+00
  1.00800000E+00  1.20100000E+01  1.00800000E+00  1.00800000E+00  1.60000000E+01
  1.00800000E+00  1.00800000E+00  1.20100000E+01  1.00800000E+00  1.00800000E+00
  1.60000000E+01  1.00800000E+00  1.00800000E+00  1.20100000E+01  1.00800000E+00
  1.00800000E+00  1.60000000E+01  1.00800000E+00  1.00800000E+00  1.20100000E+01
  1.00800000E+00  1.00800000E+00  1.60000000E+01  1.00800000E+00  1.00800000E+00
  1.20100000E+01  1.00800000E+00  1.00800000E+00  1.60000000E+01  1.00800000E+00
  1.00800000E+00  1.20100000E+01  1.00800000E+00  1.00800000E+00  1.60000000E+01
  1.00800000E+00  1.00800000E+00  1.20100000E+01  1.00800000E+00  1.00800000E+00
  1.60000000E+01  1.00800000E+00  1.00800000E+00  1.20100000E+01  1.00800000E+00
  1.00800000E+00  1.60000000E+01  1.00800000E+00  1.00800000E+00  1.20100000E+01
  1.00800000E+00  1.00800000E+00  1.60000000E+01  1.00800000E+00  1.00800000E+00
  1.20100000E+01  1.00800000E+00  1.00800000E+00  1.60000000E+01  1.00800000E+00
  1.00800000E+00  1.20100000E+01  1.00800000E+00  1.00800000E+00  1.60000000E+01
  1.00800000E+00  1.00800000E+00  1.20100000E+01  1.00800000E+00  1.00800000E+00
  1.60000000E+01  1.00800000E+00  1.00800000E+00  1.20100000E+01  1.00800000E+00
  1.00800000E+00  1.60000000E+01  1.00800000E+00  1.00800000E+00  1.20100000E+01
  1.00800000E+00  1.00800000E+00  1.60000000E+01  1.00800000E+00  1.00800000E+00
  1.20100000E+01  1.00800000E+00  1.00800000E+00  1.60000000E+01  1.00800000E+00
  1.00800000E+00  1.20100000E+01  1.00800000E+00  1.00800000E+00  1.60000000E+01
  1.00800000E+00  1.00800000E+00  1.20100000E+01  1.00800000E+00  1.00800000E+00
  1.60000000E+01  1.00800000E+00  1.00800000E+00  1.20100000E+01  1.00800000E+00
  1.00800000E+00  1.60000000E+01  1.00800000E+00  1.00800000E+00  1.20100000E+01
  1.00800000E+00  1.00800000E+00  1.60000000E+01  1.00800000E+00  1.00800000E+00
  1.20100000E+01  1.00800000E+00  1.00800000E+00  1.60000000E+01  1.00800000E+00
  1.00800000E+00  1.20100000E+01  1.00800000E+00  1.00800000E+00  1.60000000E+01
  1.00800000E+00  1.00800000E+00  1.20100000E+01  1.00800000E+00  1.00800000E+00
  1.60000000E+01  1.00800000E+00  1.00800000E+00  1.20100000E+01  1.00800000E+00
  1.00800000E+00  1.60000000E+01  1.00800000E+00  1.00800000E+00  1.20100000E+01
  1.00800000E+00  1.00800000E+00  1.60000000E+01  1.00800000E+00  1.00800000E+00
  1.20100000E+01  1.00800000E+00  1.00800000E+00  1.60000000E+01  1.00800000E+00
  1.00800000E+00  1.20100000E+01  1.00800000E+00  1.00800000E+00  1.60000000E+01
  1.00800000E+00  1.00800000E+00  1.20100000E+01  1.00800000E+00  1.00800000E+00
  1.60000000E+01  1.00800000E+00  1.00800000E+00  1.20100000E+01  1.00800000E+00
  1.00800000E+00  1.60000000E+01  1.00800000E+00  1.00800000E+00  1.20100000E+01
  1.00800000E+00  1.00800000E+00  1.60000000E+01  1.00800000E+00  1.00800000E+00
  1.20100000E+01  1.00800000E+00  1.00800000E+00  1.60000000E+01  1.00800000E+00
  1.00800000E+00  1.20100000E+01  1.00800000E+00  1.00800000E+00  1.60000000E+01
  1.00800000E+00  1.00800000E+00  1.20100000E+01  1.00800000E+00  1.00800000E+00
  1.60000000E+01  1.00800000E+00  1.00800000E+00  1.20100000E+01  1.00800000E+00
  1.00800000E+00  1.60000000E+01  1.00800000E+00  1.00800000E+00  1.20100000E+01
  1.00800000E+00  1.00800000E+00  1.60000000E+01  1.00800000E+00  1.00800000E+00
  1.20100000E+01  1.00800000E+00  1.00800000E+00  1.60000000E+01  1.00800000E+00
  1.00800000E+00  1.20100000E+01  1.00800000E+00  1.00800000E+00  1.60000000E+01
  1.00800000E+00  1.00800000E+00  1.20100000E+01  1.00800000E+00  1.00800000E+00
  1.60000000E+01  1.00800000E+00  1.00800000E+00  1.20100000E+01  1.00800000E+00
  1.00800000E+00  1.60000000E+01  1.00800000E+00  1.00800000E+00  1.20100000E+01
  1.00800000E+00  1.00800000E+00  1.60000000E+01  1.00800000E+00  1.00800000E+00
  1.20100000E+01  1.00800000E+00  1.00800000E+00  1.60000000E+01  1.00800000E+00
  1.00800000E+00  1.20100000E+01  1.00800000E+00  1.00800000E+00  1.60000000E+01
  1.00800000E+00  1.00800000E+00  1.20100000E+01  1.00800000E+00  1.00800000E+00
  1.60000000E+01  1.00800000E+00  1.00800000E+00  1.20100000E+01  1.00800000E+00
  1.00800000E+00  1.60000000E+01  1.00800000E+00  1.00800000E+00  1.20100000E+01
  1.00800000E+00  1.00800000E+00  1.60000000E+01  1.00800000E+00  1.00800000E+00
  1.20100000E+01  1.00800000E+00  1.00800000E+00  1.60000000E+01  1.00800000E+00
  1.00800000E+00  1.20100000E+01  1.00800000E+00  1.00800000E+00  1.60000000E+01
  1.00800000E+00  1.00800000E+00  1.20100000E+01  1.00800000E+00  1.00800000E+00
  1.60000000E+01  1.00800000E+00  1.00800000E+00  1.20100000E+01  1.00800000E+00
  1.00800000E+00  1.60000000E+01  1.00800000E+00  1.00800000E+00  1.20100000E+01
  1.00800000E+00  1.00800000E+00  1.60000000E+01  1.00800000E+00  1.00800000E+00
  1.20100000E+01  1.00800000E+00  1.00800000E+00  1.60000000E+01  1.00800000E+00
  1.00800000E+00  1.20100000E+01  1.00800000E+00  1.00800000E+00  1.60000000E+01
  1.00800000E+00  1.00800000E+00  1.20100000E+01  1.00800000E+00  1.00800000E+00
  1.60000000E+01  1.00800000E+00  1.00800000E+00  1.20100000E+01  1.00800000E+00
  1.00800000E+00  1.60000000E+01  1.00800000E+00  1.00800000E+00  1.20100000E+01
  1.00800000E+00  1.00800000E+00  1.60000000E+01  1.00800000E+00  1.00800000E+00
  1.20100000E+01  1.00800000E+00  1.00800000E+00  1.60000000E+01  1.00800000E+00
  1.00800000E+00  1.20100000E+01  1.00800000E+00  1.00800000E+00  1.60000000E+01
  1.00800000E+00  1.00800000E+00  1.20100000E+01  1.00800000E+00  1.00800000E+00
  1.60000000E+01  1.00800000E+00  1.00800000E+00  1.20100000E+01  1.00800000E+00
  1.00800000E+00  1.60000000E+01  1.00800000E+00  1.00800000E+00  1.20100000E+01
  1.00800000E+00  1.00800000E+00  1.60000000E+01  1.00800000E+00  1.00800000E+00
  1.20100000E+01  1.00800000E+00  1.00800000E+00  1.60000000E+01  1.00800000E+00
  1.00800000E+00  1.20100000E+01  1.00800000E+00  1.00800000E+00  1.60000000E+01
  1.00800000E+00  1.00800000E+00  1.20100000E+01  1.00800000E+00  1.00800000E+00
  1.60000000E+01  1.00800000E+00  1.00800000E+00  1.20100000E+01  1.00800000E+00
  1.00800000E+00  1.60000000E+01  1.00800000E+00  1.00800000E+00  1.20100000E+01
  1.00800000E+00  1.00800000E+00  1.60000000E+01  1.00800000E+00  1.00800000E+00
  1.20100000E+01  1.00800000E+00  1.00800000E+00  1.60000000E+01  1.00800000E+00
  1.00800000E+00  1.20100000E+01  1.00800000E+00  1.00800000E+00  1.60000000E+01
  1.00800000E+00  1.00800000E+00  1.20100000E+01  1.00800000E+00  1.00800000E+00
  1.60000000E+01  1.00800000E+00  1.00800000E+00  1.20100000E+01  1.00800000E+00
  1.00800000E+00  1.60000000E+01  1.00800000E+00  1.00800000E+00  1.20100000E+01
  1.00800000E+00  1.00800000E+00  1.60000000E+01  1.00800000E+00  1.00800000E+00
  1.20100000E+01  1.00800000E+00  1.00800000E+00  1.60000000E+01  1.00800000E+00
  1.00800000E+00  1.20100000E+01  1.00800000E+00  1.00800000E+00  1.60000000E+01
  1.00800000E+00  1.00800000E+00  1.20100000E+01  1.00800000E+00  1.00800000E+00
  1.60000000E+01  1.00800000E+00  1.00800000E+00  1.20100000E+01  1.00800000E+00
  1.00800000E+00  1.60000000E+01  1.00800000E+00  1.00800000E+00  1.20100000E+01
  1.00800000E+00  1.00800000E+00  1.60000000E+01  1.00800000E+00  1.00800000E+00
  1.20100000E+01  1.00800000E+00  1.00800000E+00  1.60000000E+01  1.00800000E+00
  1.00800000E+00  1.20100000E+01  1.00800000E+00  1.00800000E+00  1.60000000E+01
  1.00800000E+00  1.00800000E+00  1.20100000E+01  1.00800000E+00  1.00800000E+00
  1.60000000E+01  1.00800000E+00  1.00800000E+00  1.20100000E+01  1.00800000E+00
  1.00800000E+00  1.60000000E+01  1.00800000E+00  1.00800000E+00  1.20100000E+01
  1.00800000E+00  1.00800000E+00  1.60000000E+01  1.00800000E+00  1.00800000E+00
  1.20100000E+01  1.00800000E+00  1.00800000E+00  1.60000000E+01  1.00800000E+00
  1.00800000E+00  1.20100000E+01  1.00800000E+00  1.00800000E+00  1.60000000E+01
  1.00800000E+00  1.00800000E+00  1.20100000E+01  1.00800000E+00  1.00800000E+00
  1.60000000E+01  1.00800000E+00  1.00800000E+00  1.20100000E+01  1.00800000E+00
  1.00800000E+00  1.60000000E+01  1.00800000E+00  1.00800000E+00  1.20100000E+01
  1.00800000E+00  1.00800000E+00  1.60000000E+01  1.00800000E+00  1.00800000E+00
  1.20100000E+01  1.00800000E+00  1.00800000E+00  1.60000000E+01  1.00800000E+00
  1.00800000E+00  1.20100000E+01  1.00800000E+00  1.00800000E+00  1.60000000E+01
  1.00800000E+00  1.00800000E+00  1.20100000E+01  1.00800000E+00  1.00800000E+00
  1.60000000E+01  1.00800000E+00  1.00800000E+00  1.20100000E+01  1.00800000E+00
  1.00800000E+00  1.60000000E+01  1.00800000E+00  1.00800000E+00  1.20100000E+01
  1.00800000E+00  1.00800000E+00  1.60000000E+01  1.00800000E+00  1.00800000E+00
  1.20100000E+01  1.00800000E+00  1.00800000E+00  1.60000000E+01  1.00800000E+00
  1.00800000E+00  1.20100000E+01  1.00800000E+00  1.00800000E+00  1.60000000E+01
  1.00800000E+00  1.00800000E+00  1.20100000E+01  1.00800000E+00  1.00800000E+00
  1.60000000E+01  1.00800000E+00  1.00800000E+00  1.20100000E+01  1.00800000E+00
  1.00800000E+00  1.60000000E+01  1.00800000E+00  1.00800000E+00  1.20100000E+01
  1.00800000E+00  1.00800000E+00  1.60000000E+01  1.00800000E+00  1.00800000E+00
  1.20100000E+01  1.00800000E+00  1.00800000E+00  1.60000000E+01  1.00800000E+00
  1.00800000E+00  1.20100000E+01  1.00800000E+00  1.00800000E+00  1.60000000E+01
  1.00800000E+00  1.00800000E+00  1.20100000E+01  1.00800000E+00  1.00800000E+00
  1.60000000E+01  1.00800000E+00  1.00800000E+00  1.20100000E+01  1.00800000E+00
  1.00800000E+00  1.60000000E+01  1.00800000E+00  1.00800000E+00  1.20100000E+01
  1.00800000E+00  1.00800000E+00  1.60000000E+01  1.00800000E+00  1.00800000E+00
  1.20100000E+01  1.00800000E+00  1.00800000E+00  1.60000000E+01  1.00800000E+00
  1.00800000E+00  1.20100000E+01  1.00800000E+00  1.00800000E+00  1.60000000E+01
  1.00800000E+00  1.00800000E+00  1.20100000E+01  1.00800000E+00  1.00800000E+00
  1.60000000E+01  1.00800000E+00  1.00800000E+00  1.20100000E+01  1.00800000E+00
  1.00800000E+00  1.60000000E+01  1.00800000E+00  1.00800000E+00  1.20100000E+01
  1.00800000E+00  1.00800000E+00  1.60000000E+01  1.00800000E+00  1.00800000E+00
  1.20100000E+01  1.00800000E+00  1.00800000E+00  1.60000000E+01  1.00800000E+00
  1.00800000E+00  1.20100000E+01  1.00800000E+00  1.00800000E+00  1.60000000E+01
  1.00800000E+00  1.00800000E+00  1.20100000E+01  1.00800000E+00  1.00800000E+00
  1.60000000E+01  1.00800000E+00  1.00800000E+00  1.20100000E+01  1.00800000E+00
  1.00800000E+00  1.60000000E+01  1.00800000E+00  1.00800000E+00  1.20100000E+01
  1.00800000E+00  1.00800000E+00  1.60000000E+01  1.00800000E+00  1.00800000E+00
  1.20100000E+01  1.00800000E+00  1.00800000E+00  1.60000000E+01  1.00800000E+00
  1.00800000E+00  1.20100000E+01  1.00800000E+00  1.00800000E+00  1.60000000E+01
  1.00800000E+00  1.00800000E+00  1.20100000E+01  1.00800000E+00  1.00800000E+00
  1.60000000E+01  1.00800000E+00  1.00800000E+00  1.20100000E+01  1.00800000E+00
  1.00800000E+00  1.60000000E+01  1.00800000E+00  1.00800000E+00  1.20100000E+01
  1.00800000E+00  1.00800000E+00  1.60000000E+01  1.00800000E+00  1.00800000E+00
  1.20100000E+01  1.00800000E+00  1.00800000E+00  1.60000000E+01  1.00800000E+00
  1.00800000E+00  1.20100000E+01  1.00800000E+00  1.00800000E+00  1.60000000E+01
  1.00800000E+00  1.00800000E+00  1.20100000E+01  1.00800000E+00  1.00800000E+00
  1.60000000E+01  1.00800000E+00  1.00800000E+00  1.20100000E+01  1.00800000E+00
  1.00800000E+00  1.60000000E+01  1.00800000E+00  1.00800000E+00  1.20100000E+01
  1.00800000E+00  1.00800000E+00  1.60000000E+01  1.00800000E+00  1.00800000E+00
  1.20100000E+01  1.00800000E+00  1.00800000E+00  1.60000000E+01  1.00800000E+00
  1.00800000E+00  1.20100000E+01  1.00800000E+00  1.00800000E+00  1.60000000E+01
  1.00800000E+00  1.00800000E+00  1.20100000E+01  1.00800000E+00  1.00800000E+00
  1.60000000E+01  1.00800000E+00  1.00800000E+00  1.20100000E+01  1.00800000E+00
  1.00800000E+00  1.60000000E+01  1.00800000E+00  1.00800000E+00  1.20100000E+01
  1.00800000E+00  1.00800000E+00  1.60000000E+01  1.00800000E+00  1.00800000E+00
  1.20100000E+01  1.00800000E+00  1.00800000E+00  1.60000000E+01  1.00800000E+00
  1.00800000E+00  1.20100000E+01  1.00800000E+00  1.00800000E+00  1.60000000E+01
  1.00800000E+00  1.00800000E+00  1.20100000E+01  1.00800000E+00  1.00800000E+00
  1.60000000E+01  1.00800000E+00  1.00800000E+00  1.20100000E+01  1.00800000E+00
  1.00800000E+00  1.60000000E+01  1.00800000E+00  1.00800000E+00  1.20100000E+01
  1.00800000E+00  1.00800000E+00  1.60000000E+01  1.00800000E+00  1.00800000E+00
  1.20100000E+01  1.00800000E+00  1.00800000E+00  1.60000000E+01  1.00800000E+00
  1.00800000E+00  1.20100000E+01  1.00800000E+00  1.00800000E+00  1.60000000E+01
  1.00800000E+00  1.00800000E+00  1.20100000E+01  1.00800000E+00  1.00800000E+00
  1.60000000E+01  1.00800000E+00  1.00800000E+00  1.20100000E+01  1.00800000E+00
  1.00800000E+00  1.60000000E+01  1.00800000E+00  1.00800000E+00  1.20100000E+01
  1.00800000E+00  1.00800000E+00  1.60000000E+01  1.00800000E+00  1.00800000E+00
  1.20100000E+01  1.00800000E+00  1.00800000E+00  1.60000000E+01  1.00800000E+00
  1.00800000E+00  1.20100000E+01  1.00800000E+00  1.00800000E+00  1.60000000E+01
  1.00800000E+00  1.00800000E+00  1.20100000E+01  1.00800000E+00  1.00800000E+00
  1.60000000E+01  1.00800000E+00  1.00800000E+00  1.20100000E+01  1.00800000E+00
  1.00800000E+00  1.60000000E+01  1.00800000E+00  1.00800000E+00  1.20100000E+01
  1.00800000E+00  1.00800000E+00  1.60000000E+01  1.00800000E+00  1.00800000E+00
  1.20100000E+01  1.00800000E+00  1.00800000E+00  1.60000000E+01  1.00800000E+00
  1.00800000E+00  1.20100000E+01  1.00800000E+00  1.00800000E+00  1.60000000E+01
  1.00800000E+00  1.00800000E+00  1.20100000E+01  1.00800000E+00  1.00800000E+00
  1.60000000E+01  1.00800000E+00  1.00800000E+00  1.20100000E+01  1.00800000E+00
  1.00800000E+00  1.60000000E+01  1.00800000E+00  1.00800000E+00  1.20100000E+01
  1.00800000E+00  1.00800000E+00  1.60000000E+01  1.00800000E+00  1.00800000E+00
  1.20100000E+01  1.00800000E+00  1.00800000E+00  1.60000000E+01  1.00800000E+00
  1.00800000E+00  1.20100000E+01  1.00800000E+00  1.00800000E+00  1.60000000E+01
  1.00800000E+00  1.00800000E+00  1.20100000E+01  1.00800000E+00  1.00800000E+00
  1.60000000E+01  1.00800000E+00  1.00800000E+00  1.20100000E+01  1.00800000E+00
  1.00800000E+00  1.60000000E+01  1.00800000E+00  1.00800000E+00  1.20100000E+01
  1.00800000E+00  1.00800000E+00  1.60000000E+01  1.00800000E+00  1.00800000E+00
  1.20100000E+01  1.00800000E+00  1.00800000E+00  1.60000000E+01  1.00800000E+00
  1.00800000E+00  1.20100000E+01  1.00800000E+00  1.00800000E+00  1.60000000E+01
  1.00800000E+00  1.00800000E+00  1.20100000E+01  1.00800000E+00  1.00800000E+00
  1.60000000E+01  1.00800000E+00  1.00800000E+00  1.20100000E+01  1.00800000E+00
  1.00800000E+00  1.60000000E+01  1.00800000E+00  1.00800000E+00  1.20100000E+01
  1.00800000E+00  1.00800000E+00  1.60000000E+01  1.00800000E+00  1.00800000E+00
  1.20100000E+01  1.00800000E+00  1.00800000E+00  1.60000000E+01  1.00800000E+00
  1.00800000E+00  1.20100000E+01  1.00800000E+00  1.00800000E+00  1.60000000E+01
  1.00800000E+00  1.00800000E+00  1.20100000E+01  1.00800000E+00  1.00800000E+00
  1.60000000E+01  1.00800000E+00  1.00800000E+00  1.20100000E+01  1.00800000E+00
  1.00800000E+00  1.60000000E+01  1.00800000E+00  1.00800000E+00  1.20100000E+01
  1.00800000E+00  1.00800000E+00  1.60000000E+01  1.00800000E+00  1.00800000E+00
  1.20100000E+01  1.00800000E+00  1.00800000E+00  1.60000000E+01  1.00800000E+00
  1.00800000E+00  1.20100000E+01  1.00800000E+00  1.00800000E+00  1.60000000E+01
  1.00800000E+00  1.00800000E+00  1.20100000E+01  1.00800000E+00  1.00800000E+00
  1.60000000E+01  1.00800000E+00  1.00800000E+00  1.20100000E+01  1.00800000E+00
  1.00800000E+00  1.60000000E+01  1.00800000E+00  1.00800000E+00  1.20100000E+01
  1.00800000E+00  1.00800000E+00  1.60000000E+01  1.00800000E+00  1.00800000E+00
  1.20100000E+01  1.00800000E+00  1.00800000E+00  1.60000000E+01  1.00800000E+00
  1.00800000E+00  1.20100000E+01  1.00800000E+00  1.00800000E+00  1.60000000E+01
  1.00800000E+00  1.00800000E+00  1.20100000E+01  1.00800000E+00  1.00800000E+00
  1.60000000E+01  1.00800000E+00  1.00800000E+00  1.20100000E+01  1.00800000E+00
  1.00800000E+00  1.60000000E+01  1.00800000E+00  1.00800000E+00  1.20100000E+01
  1.00800000E+00  1.00800000E+00  1.60000000E+01  1.00800000E+00  1.00800000E+00
  1.20100000E+01  1.00800000E+00  1.00800000E+00  1.60000000E+01  1.00800000E+00
  1.00800000E+00  1.20100000E+01  1.00800000E+00  1.00800000E+00  1.60000000E+01
  1.00800000E+00  1.00800000E+00  1.20100000E+01  1.00800000E+00  1.00800000E+00
  1.60000000E+01  1.00800000E+00  1.00800000E+00  1.20100000E+01  1.00800000E+00
  1.00800000E+00  1.60000000E+01  1.00800000E+00  1.00800000E+00  1.20100000E+01
  1.00800000E+00  1.00800000E+00  1.60000000E+01  1.00800000E+00  1.00800000E+00
  1.20100000E+01  1.00800000E+00  1.00800000E+00  1.60000000E+01  1.00800000E+00
  1.00800000E+00  1.20100000E+01  1.00800000E+00  1.00800000E+00  1.60000000E+01
  1.00800000E+00  1.00800000E+00  1.20100000E+01  1.00800000E+00  1.00800000E+00
  1.60000000E+01  1.00800000E+00  1.00800000E+00  1.20100000E+01  1.00800000E+00
  1.00800000E+00  1.60000000E+01  1.00800000E+00  1.00800000E+00  1.20100000E+01
  1.00800000E+00  1.00800000E+00  1.60000000E+01  1.00800000E+00  1.00800000E+00
  1.20100000E+01  1.00800000E+00  1.00800000E+00  1.60000000E+01  1.00800000E+00
  1.00800000E+00  1.20100000E+01  1.00800000E+00  1.00800000E+00  1.60000000E+01
  1.00800000E+00  1.00800000E+00  1.20100000E+01  1.00800000E+00  1.00800000E+00
  1.60000000E+01  1.00800000E+00  1.00800000E+00  1.20100000E+01  1.00800000E+00
  1.00800000E+00  1.60000000E+01  1.00800000E+00  1.00800000E+00  1.20100000E+01
  1.00800000E+00  1.00800000E+00  1.60000000E+01  1.00800000E+00  1.00800000E+00
  1.20100000E+01  1.00800000E+00  1.00800000E+00  1.60000000E+01  1.00800000E+00
  1.00800000E+00  1.20100000E+01  1.00800000E+00  1.00800000E+00  1.60000000E+01
  1.00800000E+00  1.00800000E+00  1.20100000E+01  1.00800000E+00  1.00800000E+00
  1.60000000E+01  1.00800000E+00  1.00800000E+00  1.20100000E+01  1.00800000E+00
  1.00800000E+00  1.60000000E+01  1.00800000E+00  1.00800000E+00  1.20100000E+01
  1.00800000E+00  1.00800000E+00  1.60000000E+01  1.00800000E+00  1.00800000E+00
  1.20100000E+01  1.00800000E+00  1.00800000E+00  1.60000000E+01  1.00800000E+00
  1.00800000E+00  1.20100000E+01  1.00800000E+00  1.00800000E+00  1.60000000E+01
  1.00800000E+00  1.00800000E+00  1.20100000E+01  1.00800000E+00  1.00800000E+00
  1.60000000E+01  1.00800000E+00  1.00800000E+00  1.20100000E+01  1.00800000E+00
  1.00800000E+00  1.60000000E+01  1.00800000E+00  1.00800000E+00  1.20100000E+01
  1.00800000E+00  1.00800000E+00  1.60000000E+01  1.00800000E+00  1.00800000E+00
  1.20100000E+01  1.00800000E+00  1.00800000E+00  1.60000000E+01  1.00800000E+00
  1.00800000E+00  1.20100000E+01  1.00800000E+00  1.00800000E+00  1.60000000E+01
  1.00800000E+00  1.00800000E+00  1.20100000E+01  1.00800000E+00  1.00800000E+00
  1.60000000E+01  1.00800000E+00  1.00800000E+00  1.20100000E+01  1.00800000E+00
  1.00800000E+00  1.60000000E+01  1.00800000E+00  1.00800000E+00  1.20100000E+01
  1.00800000E+00  1.00800000E+00  1.60000000E+01  1.00800000E+00  1.00800000E+00
  1.20100000E+01  1.00800000E+00  1.00800000E+00  1.60000000E+01  1.00800000E+00
  1.00800000E+00  1.20100000E+01  1.00800000E+00  1.00800000E+00  1.60000000E+01
  1.00800000E+00  1.00800000E+00  1.20100000E+01  1.00800000E+00  1.00800000E+00
  1.60000000E+01  1.00800000E+00  1.00800000E+00  1.20100000E+01  1.00800000E+00
  1.00800000E+00  1.60000000E+01  1.00800000E+00  1.00800000E+00  1.20100000E+01
  1.00800000E+00  1.00800000E+00  1.60000000E+01  1.00800000E+00  1.00800000E+00
  1.20100000E+01  1.00800000E+00  1.00800000E+00  1.60000000E+01  1.00800000E+00
  1.00800000E+00  1.20100000E+01  1.00800000E+00  1.00800000E+00  1.60000000E+01
  1.00800000E+00  1.00800000E+00  1.20100000E+01  1.00800000E+00  1.00800000E+00
  1.60000000E+01  1.00800000E+00  1.00800000E+00  1.20100000E+01  1.00800000E+00
  1.00800000E+00  1.60000000E+01  1.00800000E+00  1.00800000E+00  1.20100000E+01
  1.00800000E+00  1.00800000E+00  1.60000000E+01  1.00800000E+00  1.00800000E+00
  1.20100000E+01  1.00800000E+00  1.00800000E+00  1.60000000E+01  1.00800000E+00
  1.00800000E+00  1.20100000E+01  1.00800000E+00  1.00800000E+00  1.60000000E+01
  1.00800000E+00  1.00800000E+00  1.20100000E+01  1.00800000E+00  1.00800000E+00
  1.60000000E+01  1.00800000E+00  1.00800000E+00  1.20100000E+01  1.00800000E+00
  1.00800000E+00  1.60000000E+01  1.00800000E+00  1.00800000E+00  1.20100000E+01
  1.00800000E+00  1.00800000E+00  1.60000000E+01  1.00800000E+00  1.00800000E+00
  1.20100000E+01  1.00800000E+00  1.00800000E+00  1.60000000E+01  1.00800000E+00
  1.00800000E+00  1.20100000E+01  1.00800000E+00  1.00800000E+00  1.60000000E+01
  1.00800000E+00  1.00800000E+00  1.20100000E+01  1.00800000E+00  1.00800000E+00
  1.60000000E+01  1.00800000E+00  1.00800000E+00  1.20100000E+01  1.00800000E+00
  1.00800000E+00  1.60000000E+01  1.00800000E+00  1.00800000E+00  1.20100000E+01
  1.00800000E+00  1.00800000E+00  1.60000000E+01  1.00800000E+00  1.00800000E+00
  1.20100000E+01  1.00800000E+00  1.00800000E+00  1.60000000E+01  1.00800000E+00
  1.00800000E+00  1.20100000E+01  1.00800000E+00  1.00800000E+00  1.60000000E+01
  1.00800000E+00  1.00800000E+00  1.20100000E+01  1.00800000E+00  1.00800000E+00
  1.60000000E+01  1.00800000E+00  1.00800000E+00  1.20100000E+01  1.00800000E+00
  1.00800000E+00  1.60000000E+01  1.00800000E+00  1.00800000E+00  1.20100000E+01
  1.00800000E+00  1.00800000E+00  1.60000000E+01  1.00800000E+00  1.00800000E+00
  1.20100000E+01  1.00800000E+00  1.00800000E+00  1.60000000E+01  1.00800000E+00
  1.00800000E+00  1.20100000E+01  1.00800000E+00  1.00800000E+00  1.60000000E+01
  1.00800000E+00  1.00800000E+00  1.20100000E+01  1.00800000E+00  1.00800000E+00
  1.60000000E+01  1.00800000E+00  1.00800000E+00  1.20100000E+01  1.00800000E+00
  1.00800000E+00  1.60000000E+01  1.00800000E+00  1.00800000E+00  1.20100000E+01
  1.00800000E+00  1.00800000E+00  1.60000000E+01  1.00800000E+00  1.00800000E+00
  1.20100000E+01  1.00800000E+00  1.00800000E+00  1.60000000E+01  1.00800000E+00
  1.00800000E+00  1.20100000E+01  1.00800000E+00  1.00800000E+00  1.60000000E+01
  1.00800000E+00  1.00800000E+00  1.20100000E+01  1.00800000E+00  1.00800000E+00
  1.60000000E+01  1.00800000E+00  1.00800000E+00  1.20100000E+01  1.00800000E+00
  1.00800000E+00  1.60000000E+01  1.00800000E+00  1.00800000E+00  1.20100000E+01
  1.00800000E+00  1.00800000E+00  1.60000000E+01  1.00800000E+00  1.00800000E+00
  1.20100000E+01  1.00800000E+00  1.00800000E+00  1.60000000E+01  1.00800000E+00
  1.00800000E+00  1.20100000E+01  1.00800000E+00  1.00800000E+00  1.60000000E+01
  1.00800000E+00  1.00800000E+00  1.20100000E+01  1.00800000E+00  1.00800000E+00
  1.60000000E+01  1.00800000E+00  1.00800000E+00  1.20100000E+01  1.00800000E+00
  1.00800000E+00  1.60000000E+01  1.00800000E+00  1.00800000E+00  1.20100000E+01
  1.00800000E+00  1.00800000E+00  1.60000000E+01  1.00800000E+00  1.00800000E+00
  1.20100000E+01  1.00800000E+00  1.00800000E+00  1.60000000E+01  1.00800000E+00
  1.00800000E+00  1.20100000E+01  1.00800000E+00  1.00800000E+00  1.60000000E+01
  1.00800000E+00  1.00800000E+00  1.20100000E+01  1.00800000E+00  1.00800000E+00
  1.60000000E+01  1.00800000E+00  1.00800000E+00  1.20100000E+01  1.00800000E+00
  1.00800000E+00  1.60000000E+01  1.00800000E+00  1.00800000E+00  1.20100000E+01
  1.00800000E+00  1.00800000E+00  1.60000000E+01  1.00800000E+00  1.00800000E+00
  1.20100000E+01  1.00800000E+00  1.00800000E+00  1.60000000E+01  1.00800000E+00
  1.00800000E+00  1.20100000E+01  1.00800000E+00  1.00800000E+00  1.60000000E+01
  1.00800000E+00  1.00800000E+00  1.20100000E+01  1.00800000E+00  1.00800000E+00
  1.60000000E+01  1.00800000E+00  1.00800000E+00  1.20100000E+01  1.00800000E+00
  1.00800000E+00  1.60000000E+01  1.00800000E+00  1.00800000E+00  1.20100000E+01
  1.00800000E+00  1.00800000E+00  1.60000000E+01  1.00800000E+00  1.00800000E+00
  1.20100000E+01  1.00800000E+00  1.00800000E+00  1.60000000E+01  1.00800000E+00
  1.00800000E+00  1.20100000E+01  1.00800000E+00  1.00800000E+00  1.60000000E+01
  1.00800000E+00  1.00800000E+00  1.20100000E+01  1.00800000E+00  1.00800000E+00
  1.60000000E+01  1.00800000E+00
%FLAG ATOM_TYPE_INDEX                                                           
%FORMAT(10I8)                                                                   
       1       2       3       4       5       6       3       7       7       3
       7       7       7       5       6       1       3       4       4       4
       3       4       4       5       6       1       3       4       4       4
       3       4       3       7       7       3       7       3       7       7
       7       3       7       7       7       1       2       3       4       5
       6       3       7       3       7       7       7       3       7       7
       7       5       6       1       3       4       4       4       3       4
       3       7       7       3       7       3       7       7       7       3
       7       7       7       1       2       3       4       3       7       7
       7       5       6       5       6       1       2       3       4       3
       7       7       7       5       6       1       3       4       4       4
       3       4       3       7       7       3       7       3       7       7
       7       3       7       7       7       5       6       1       3       4
       4       4       3       4       3       7       7       3       7       3
       7       7       7       3       7       7       7       5       6       1
       3       4       4       4       3       4       3       4       8       9
       5      10       5      10       3       7       7       7       3       7
       7       3       7       3       7       7       7       5       6       1
       3       4       4       4       3       4       3       7       3       7
       7       7       3       7       7       7       4       3       4       4
       8       9       4       3       4       4       8       9       4       3
       4       4       8       9       4       3       4       4       8       9
       4       3       4       4       8       9       4       3       4       4
       8       9       4       3       4       4       8       9       4       3
       4       4       8       9       4       3       4       4       8       9
       4       3       4       4       8       9       4       3       4       4
       8       9       4       3       4       4       8       9       4       3
       4       4       8       9       4       3       4       4       8       9
       4       3       4       4       8       9       4       3       4       4
       8       9       4       3       4       4       8       9       4       3
       4       4       8       9       4       3       4       4       8       9
       4       3       4       4       8       9       4       3       4       4
       8       9       4       3       4       4       8       9       4       3
       4       4       8       9       4       3       4       4       8       9
       4       3       4       4       8       9       4       3       4       4
       8       9       4       3       4       4       8       9       4       3
       4       4       8       9       4       3       4       4       8       9
       4       3       4       4       8       9       4       3       4       4
       8       9       4       3       4       4       8       9       4       3
       4       4       8       9       4       3       4       4       8       9
       4       3       4       4       8       9       4       3       4       4
       8       9       4       3       4       4       8       9       4       3
       4       4       8       9       4       3       4       4       8       9
       4       3       4       4       8       9       4       3       4       4
       8       9       4       3       4       4       8       9       4       3
       4       4       8       9       4       3       4       4       8       9
       4       3       4       4       8       9       4       3       4       4
       8       9       4       3       4       4       8       9       4       3
       4       4       8       9       4       3       4       4       8       9
       4       3       4       4       8       9       4       3       4       4
       8       9       4       3       4       4       8       9       4       3
       4       4       8       9       4       3       4       4       8       9
       4       3       4       4       8       9       4       3       4       4
       8       9       4       3       4       4       8       9       4       3
       4       4       8       9       4       3       4       4       8       9
       4       3       4       4       8       9       4       3       4       4
       8       9       4       3       4       4       8       9       4       3
       4       4       8       9       4       3       4       4       8       9
       4       3       4       4       8       9       4       3       4       4
       8       9       4       3       4       4       8       9       4       3
       4       4       8       9       4       3       4       4       8       9
       4       3       4       4       8       9       4       3       4       4
       8       9       4       3       4       4       8       9       4       3
       4       4       8       9       4       3       4       4       8       9
       4       3       4       4       8       9       4       3       4       4
       8       9       4       3       4       4       8       9       4       3
       4       4       8       9       4       3       4       4       8       9
       4       3       4       4       8       9       4       3       4       4
       8       9       4       3       4       4       8       9       4       3
       4       4       8       9       4       3       4       4       8       9
       4       3       4       4       8       9       4       3       4       4
       8       9       4       3       4       4       8       9       4       3
       4       4       8       9       4       3       4       4       8       9
       4       3       4       4       8       9       4       3       4       4
       8       9       4       3       4       4       8       9       4       3
       4       4       8       9       4       3       4       4       8       9
       4       3       4       4       8       9       4       3       4       4
       8       9       4       3       4       4       8       9       4       3
       4       4       8       9       4       3       4       4       8       9
       4       3       4       4       8       9       4       3       4       4
       8       9       4       3       4       4       8       9       4       3
       4       4       8       9       4       3       4       4       8       9
       4       3       4       4       8       9       4       3       4       4
       8       9       4       3       4       4       8       9       4       3
       4       4       8       9       4       3       4       4       8       9
       4       3       4       4       8       9       4       3       4       4
       8       9       4       3       4       4       8       9       4       3
       4       4       8       9       4       3       4       4       8       9
       4       3       4       4       8       9       4       3       4       4
       8       9       4       3       4       4       8       9       4       3
       4       4       8       9       4       3       4       4       8       9
       4       3       4       4       8       9       4       3       4       4
       8       9       4       3       4       4       8       9       4       3
       4       4       8       9       4       3       4       4       8       9
       4       3       4       4       8       9       4       3       4       4
       8       9       4       3       4       4       8       9       4       3
       4       4       8       9       4       3       4       4       8       9
       4       3       4       4       8       9       4       3       4       4
       8       9       4       3       4       4       8       9       4       3
       4       4       8       9       4       3       4       4       8       9
       4       3       4       4       8       9       4       3       4       4
       8       9       4       3       4       4       8       9       4       3
       4       4       8       9       4       3       4       4       8       9
       4       3       4       4       8       9       4       3       4       4
       8       9       4       3       4       4       8       9       4       3
       4       4       8       9       4       3       4       4       8       9
       4       3       4       4       8       9       4       3       4       4
       8       9       4       3       4       4       8       9       4       3
       4       4       8       9       4       3       4       4       8       9
       4       3       4       4       8       9       4       3       4       4
       8       9       4       3       4       4       8       9       4       3
       4       4       8       9       4       3       4       4       8       9
       4       3       4       4       8       9       4       3       4       4
       8       9       4       3       4       4       8       9       4       3
       4       4       8       9       4       3       4       4       8       9
       4       3       4       4       8       9       4       3       4       4
       8       9       4       3       4       4       8       9       4       3
       4       4       8       9       4       3       4       4       8       9
       4       3       4       4       8       9       4       3       4       4
       8       9       4       3       4       4       8       9       4       3
       4       4       8       9       4       3       4       4       8       9
       4       3       4       4       8       9       4       3       4       4
       8       9       4       3       4       4       8       9       4       3
       4       4       8       9       4       3       4       4       8       9
       4       3       4       4       8       9       4       3       4       4
       8       9       4       3       4       4       8       9       4       3
       4       4       8       9       4       3       4       4       8       9
       4       3       4       4       8       9       4       3       4       4
       8       9       4       3       4       4       8       9       4       3
       4       4       8       9       4       3       4       4       8       9
       4       3       4       4       8       9       4       3       4       4
       8       9       4       3       4       4       8       9       4       3
       4       4       8       9       4       3       4       4       8       9
       4       3       4       4       8       9       4       3       4       4
       8       9       4       3       4       4       8       9       4       3
       4       4       8       9       4       3       4       4       8       9
       4       3       4       4       8       9       4       3       4       4
       8       9       4       3       4       4       8       9       4       3
       4       4       8       9       4       3       4       4       8       9
       4       3       4       4       8       9       4       3       4       4
       8       9       4       3       4       4       8       9       4       3
       4       4       8       9       4       3       4       4       8       9
       4       3       4       4       8       9       4       3       4       4
       8       9       4       3       4       4       8       9       4       3
       4       4       8       9       4       3       4       4       8       9
       4       3       4       4       8       9       4       3       4       4
       8       9       4       3       4       4       8       9       4       3
       4       4       8       9       4       3       4       4       8       9
       4       3       4       4       8       9       4       3       4       4
       8       9       4       3       4       4       8       9       4       3
       4       4       8       9       4       3       4       4       8       9
       4       3       4       4       8       9       4       3       4       4
       8       9       4       3       4       4       8       9       4       3
       4       4       8       9       4       3       4       4       8       9
       4       3       4       4       8       9       4       3       4       4
       8       9       4       3       4       4       8       9       4       3
       4       4       8       9       4       3       4       4       8       9
       4       3       4       4       8       9       4       3       4       4
       8       9       4       3       4       4       8       9       4       3
       4       4       8       9       4       3       4       4       8       9
       4       3       4       4       8       9       4       3       4       4
       8       9       4       3       4       4       8       9       4       3
       4       4       8       9       4       3       4       4       8       9
       4       3       4       4       8       9       4       3       4       4
       8       9       4       3       4       4       8       9       4       3
       4       4       8       9       4       3       4       4       8       9
       4       3       4       4       8       9       4       3       4       4
       8       9       4       3       4       4       8       9       4       3
       4       4       8       9       4       3       4       4       8       9
       4       3       4       4       8       9       4       3       4       4
       8       9       4       3       4       4       8       9       4       3
       4       4       8       9       4       3       4       4       8       9
       4       3       4       4       8       9       4       3       4       4
       8       9       4       3       4       4       8       9       4       3
       4       4       8       9       4       3       4       4       8       9
       4       3       4       4       8       9       4       3       4       4
       8       9       4       3       4       4       8       9       4       3
       4       4       8       9       4       3       4       4       8       9
       4       3       4       4       8       9       4       3       4       4
       8       9       4       3       4       4       8       9       4       3
       4       4       8       9       4       3       4       4       8       9
       4       3       4       4       8       9       4       3       4       4
       8       9       4       3       4       4       8       9       4       3
       4       4       8       9       4       3       4       4       8       9
       4       3       4       4       8       9       4       3       4       4
       8       9       4       3       4       4       8       9       4       3
       4       4       8       9       4       3       4       4       8       9
       4       3       4       4       8       9       4       3       4       4
       8       9       4       3       4       4       8       9       4       3
       4       4       8       9       4       3       4       4       8       9
       4       3       4       4       8       9       4       3       4       4
       8       9       4       3       4       4       8       9       4       3
       4       4       8       9       4       3       4       4       8       9
       4       3       4       4       8       9       4       3       4       4
       8       9       4       3       4       4       8       9       4       3
       4       4       8       9       4       3       4       4       8       9
       4       3       4       4       8       9       4       3       4       4
       8       9       4       3       4       4       8       9       4       3
       4       4       8       9       4       3       4       4       8       9
       4       3       4       4       8       9       4       3       4       4
       8       9       4       3       4       4       8       9       4       3
       4       4       8       9       4       3       4       4       8       9
       4       3       4       4       8       9       4       3       4       4
       8       9       4       3       4       4       8       9       4       3
       4       4       8       9       4       3       4       4       8       9
       4       3       4       4       8       9       4       3       4       4
       8       9       4       3       4       4       8       9       4       3
       4       4       8       9       4       3       4       4       8       9
       4       3       4       4       8       9       4       3       4       4
       8       9       4       3       4       4       8       9       4       3
       4       4       8       9       4       3       4       4       8       9
       4       3       4       4       8       9       4       3       4       4
       8       9       4       3       4       4       8       9       4       3
       4       4       8       9       4       3       4       4       8       9
       4       3       4       4       8       9       4       3       4       4
       8       9       4       3       4       4       8       9       4       3
       4       4       8       9       4       3       4       4       8       9
       4       3       4       4       8       9       4       3       4       4
       8       9       4       3       4       4       8       9       4       3
       4       4       8       9       4       3       4       4       8       9
       4       3       4       4       8       9       4       3       4       4
       8       9       4       3       4       4       8       9       4       3
       4       4       8       9       4       3       4       4       8       9
       4       3       4       4       8       9       4       3       4       4
       8       9       4       3       4       4       8       9       4       3
       4       4       8       9       4       3       4       4       8       9
       4       3       4       4       8       9       4       3       4       4
       8       9       4       3       4       4       8       9       4       3
       4       4       8       9       4       3       4       4       8       9
       4       3       4       4       8       9       4       3       4       4
       8       9       4       3       4       4       8       9       4       3
       4       4       8       9       4       3       4       4       8       9
       4       3       4       4       8       9       4       3       4       4
       8       9       4       3       4       4       8       9       4       3
       4       4       8       9       4       3       4       4       8       9
       4       3       4       4       8       9       4       3       4       4
       8       9       4       3       4       4       8       9       4       3
       4       4       8       9       4       3       4       4       8       9
       4       3       4       4       8       9       4       3       4       4
       8       9       4       3       4       4       8       9       4       3
       4       4       8       9       4       3       4       4       8       9
       4       3       4       4       8       9       4       3       4       4
       8       9       4       3       4       4       8       9       4       3
       4       4       8       9       4       3       4       4       8       9
       4       3       4       4       8       9       4       3       4       4
       8       9       4       3       4       4       8       9       4       3
       4       4       8       9       4       3       4       4       8       9
       4       3       4       4       8       9       4       3       4       4
       8       9       4       3       4       4       8       9       4       3
       4       4       8       9       4       3       4       4       8       9
       4       3       4       4       8       9       4       3       4       4
       8       9       4       3       4       4       8       9       4       3
       4       4       8       9       4       3       4       4       8       9
       4       3       4       4       8       9       4       3       4       4
       8       9       4       3       4       4       8       9       4       3
       4       4       8       9       4       3       4       4       8       9
       4       3       4       4       8       9       4       3       4       4
       8       9       4       3       4       4       8       9       4       3
       4       4       8       9       4       3       4       4       8       9
       4       3       4       4       8       9       4       3       4       4
       8       9       4       3       4       4       8       9       4       3
       4       4       8       9       4       3       4       4       8       9
       4       3       4       4       8       9       4       3       4       4
       8       9       4       3       4       4       8       9       4       3
       4       4       8       9       4       3       4       4       8       9
       4       3       4       4       8       9       4       3       4       4
       8       9       4       3       4       4       8       9       4       3
       4       4       8       9       4       3       4       4       8       9
       4       3       4       4       8       9       4       3       4       4
       8       9       4       3       4       4       8       9       4       3
       4       4       8       9       4       3       4       4       8       9
       4       3       4       4       8       9       4       3       4       4
       8       9       4       3       4       4       8       9       4       3
       4       4       8       9       4       3       4       4       8       9
       4       3       4       4       8       9       4       3       4       4
       8       9       4       3       4       4       8       9       4       3
       4       4       8       9       4       3       4       4       8       9
       4       3       4       4       8       9       4       3       4       4
       8       9       4       3       4       4       8       9       4       3
       4       4       8       9       4       3       4       4       8       9
       4       3       4       4       8       9       4       3       4       4
       8       9       4       3       4       4       8       9       4       3
       4       4       8       9       4       3       4       4       8       9
       4       3       4       4       8       9       4       3       4       4
       8       9       4       3       4       4       8       9       4       3
       4       4       8       9       4       3       4       4       8       9
       4       3       4       4       8       9       4       3       4       4
       8       9       4       3       4       4       8       9       4       3
       4       4       8       9       4       3       4       4       8       9
       4       3       4       4       8       9       4       3       4       4
       8       9       4       3       4       4       8       9       4       3
       4       4       8       9       4       3       4       4       8       9
       4       3       4       4       8       9       4       3       4       4
       8       9       4       3       4       4       8       9       4       3
       4       4       8       9       4       3       4       4       8       9
       4       3       4       4       8       9       4       3       4       4
       8       9       4       3       4       4       8       9       4       3
       4       4       8       9       4       3       4       4       8       9
       4       3       4       4       8       9       4       3       4       4
       8       9       4       3       4       4       8       9       4       3
       4       4       8       9       4       3       4       4       8       9
       4       3       4       4       8       9       4       3       4       4
       8       9       4       3       4       4       8       9       4       3
       4       4       8       9       4       3       4       4       8       9
       4       3       4       4       8       9       4       3       4       4
       8       9       4       3       4       4       8       9       4       3
       4       4       8       9       4       3       4       4       8       9
       4       3       4       4       8       9       4       3       4       4
       8       9       4       3       4       4       8       9       4       3
       4       4       8       9       4       3       4       4       8       9
       4       3       4       4       8       9       4       3       4       4
       8       9       4       3       4       4       8       9       4       3
       4       4       8       9       4       3       4       4       8       9
       4       3       4       4       8       9       4       3       4       4
       8       9       4       3       4       4       8       9       4       3
       4       4       8       9       4       3       4       4       8       9
       4       3       4       4       8       9       4       3       4       4
       8       9       4       3       4       4       8       9       4       3
       4       4       8       9       4       3       4       4       8       9
       4       3       4       4       8       9       4       3       4       4
       8       9       4       3       4       4       8       9       4       3
       4       4       8       9       4       3       4       4       8       9
       4       3       4       4       8       9       4       3       4       4
       8       9       4       3       4       4       8       9       4       3
       4       4       8       9       4       3       4       4       8       9
       4       3       4       4       8       9       4       3       4       4
       8       9       4       3       4       4       8       9       4       3
       4       4       8       9       4       3       4       4       8       9
       4       3       4       4       8       9       4       3       4       4
       8       9       4       3       4       4       8       9       4       3
       4       4       8       9       4       3       4       4       8       9
       4       3       4       4       8       9       4       3       4       4
       8       9       4       3       4       4       8       9       4       3
       4       4       8       9       4       3       4       4       8       9
       4       3       4       4       8       9       4       3       4       4
       8       9       4       3       4       4       8       9       4       3
       4       4       8       9       4       3       4       4       8       9
       4       3       4       4       8       9       4       3       4       4
       8       9       4       3       4       4       8       9       4       3
       4       4       8       9       4       3       4       4       8       9
       4       3       4       4       8       9       4       3       4       4
       8       9       4       3       4       4       8       9       4       3
       4       4       8       9       4       3       4       4       8       9
       4       3       4       4       8       9       4       3       4       4
       8       9       4       3       4       4       8       9       4       3
       4       4       8       9       4       3       4       4       8       9
       4       3       4       4       8       9       4       3       4       4
       8       9       4       3       4       4       8       9       4       3
       4       4       8       9       4       3       4       4       8       9
       4       3       4       4       8       9       4       3       4       4
       8       9       4       3       4       4       8       9       4       3
       4       4       8       9       4       3       4       4       8       9
       4       3       4       4       8       9       4       3       4       4
       8       9       4       3       4       4       8       9       4       3
       4       4       8       9       4       3       4       4       8       9
       4       3       4       4       8       9       4       3       4       4
       8       9       4       3       4       4       8       9       4       3
       4       4       8       9       4       3       4       4       8       9
       4       3       4       4       8       9       4       3       4       4
       8       9       4       3       4       4       8       9       4       3
       4       4       8       9       4       3       4       4       8       9
       4       3       4       4       8       9       4       3       4       4
       8       9       4       3       4       4       8       9       4       3
       4       4       8       9       4       3       4       4       8       9
       4       3       4       4       8       9       4       3       4       4
       8       9       4       3       4       4       8       9       4       3
       4       4       8       9       4       3       4       4       8       9
       4       3       4       4       8       9       4       3       4       4
       8       9       4       3       4       4       8       9       4       3
       4       4       8       9       4       3       4       4       8       9
       4       3       4       4       8       9       4       3       4       4
       8       9       4       3       4       4       8       9       4       3
       4       4       8       9       4       3       4       4       8       9
       4       3       4       4       8       9       4       3       4       4
       8       9       4       3       4       4       8       9       4       3
       4       4       8       9       4       3       4       4       8       9
       4       3       4       4       8       9       4       3       4       4
       8       9       4       3       4       4       8       9       4       3
       4       4       8       9       4       3       4       4       8       9
       4       3       4       4       8       9       4       3       4       4
       8       9       4       3       4       4       8       9       4       3
       4       4       8       9       4       3       4       4       8       9
       4       3       4       4       8       9       4       3       4       4
       8       9       4       3       4       4       8       9       4       3
       4       4       8       9       4       3       4       4       8       9
       4       3       4       4       8       9       4       3       4       4
       8       9       4       3       4       4       8       9       4       3
       4       4       8       9       4       3       4       4       8       9
       4       3       4       4       8       9       4       3       4       4
       8       9       4       3       4       4       8       9       4       3
       4       4       8       9       4       3       4       4       8       9
       4       3       4       4       8       9       4       3       4       4
       8       9       4       3       4       4       8       9       4       3
       4       4       8       9       4       3       4       4       8       9
       4       3       4       4       8       9       4       3       4       4
       8       9       4       3       4       4       8       9       4       3
       4       4       8       9       4       3       4       4       8       9
       4       3       4       4       8       9       4       3       4       4
       8       9       4       3       4       4       8       9       4       3
       4       4       8       9       4       3       4       4       8       9
       4       3       4       4       8       9       4       3       4       4
       8       9       4       3       4       4       8       9       4       3
       4       4       8       9       4       3       4       4       8       9
       4       3       4       4       8       9       4       3       4       4
       8       9       4       3       4       4       8       9       4       3
       4       4       8       9       4       3       4       4       8       9
       4       3       4       4       8       9       4       3       4       4
       8       9       4       3       4       4       8       9       4       3
       4       4       8       9       4       3       4       4       8       9
       4       3       4       4       8       9       4       3       4       4
       8       9       4       3       4       4       8       9       4       3
       4       4       8       9       4       3       4       4       8       9
       4       3       4       4       8       9       4       3       4       4
       8       9       4       3       4       4       8       9       4       3
       4       4       8       9       4       3       4       4       8       9
       4       3       4       4       8       9       4       3       4       4
       8       9       4       3       4       4       8       9       4       3
       4       4       8       9       4       3       4       4       8       9
       4       3       4       4       8       9       4       3       4       4
       8       9       4       3       4       4       8       9       4       3
       4       4       8       9       4       3       4       4       8       9
       4       3       4       4       8       9       4       3       4       4
       8       9       4       3       4       4       8       9       4       3
       4       4       8       9       4       3       4       4       8       9
       4       3       4       4       8       9       4       3       4       4
       8       9       4       3       4       4       8       9       4       3
       4       4       8       9       4       3       4       4       8       9
       4       3       4       4       8       9       4       3       4       4
       8       9       4       3       4       4       8       9       4       3
       4       4       8       9       4       3       4       4       8       9
       4       3       4       4       8       9       4       3       4       4
       8       9       4       3       4       4       8       9       4       3
       4       4       8       9       4       3       4       4       8       9
       4       3       4       4       8       9       4       3       4       4
       8       9       4       3       4       4       8       9       4       3
       4       4       8       9       4       3       4       4       8       9
       4       3       4       4       8       9       4       3       4       4
       8       9       4       3       4       4       8       9       4       3
       4       4       8       9       4       3       4       4       8       9
       4       3       4       4       8       9       4       3       4       4
       8       9       4       3       4       4       8       9       4       3
       4       4       8       9       4       3       4       4       8       9
       4       3       4       4       8       9       4       3       4       4
       8       9       4       3       4       4       8       9       4       3
       4       4       8       9       4       3       4       4       8       9
       4       3       4       4       8       9       4       3       4       4
       8       9       4       3       4       4       8       9       4       3
       4       4       8       9       4       3       4       4       8       9
       4       3       4       4       8       9       4       3       4       4
       8       9       4       3       4       4       8       9       4       3
       4       4       8       9       4       3       4       4       8       9
       4       3       4       4       8       9       4       3       4       4
       8       9       4       3       4       4       8       9       4       3
       4       4       8       9       4       3       4       4       8       9
       4       3       4       4       8       9       4       3       4       4
       8       9       4       3       4       4       8       9       4       3
       4       4       8       9       4       3       4       4       8       9
       4       3       4       4       8       9       4       3       4       4
       8       9       4       3       4       4       8       9       4       3
       4       4       8       9       4       3       4       4       8       9
       4       3       4       4       8       9       4       3       4       4
       8       9       4       3       4       4       8       9       4       3
       4       4       8       9       4       3       4       4       8       9
       4       3       4       4       8       9       4       3       4       4
       8       9       4       3       4       4       8       9       4       3
       4       4       8       9       4       3       4       4       8       9
       4       3       4       4       8       9       4       3       4       4
       8       9       4       3       4       4       8       9       4       3
       4       4       8       9       4       3       4       4       8       9
       4       3       4       4       8       9       4       3       4       4
       8       9       4       3       4       4       8       9       4       3
       4       4       8       9       4       3       4       4       8       9
       4       3       4       4       8       9       4       3       4       4
       8       9       4       3       4       4       8       9       4       3
       4       4       8       9       4       3       4       4       8       9
       4       3       4       4       8       9       4       3       4       4
       8       9       4       3       4       4       8       9       4       3
       4       4       8       9       4       3       4       4       8       9
       4       3       4       4       8       9       4       3       4       4
       8       9       4       3       4       4       8       9       4       3
       4       4       8       9       4       3       4       4       8       9
       4       3       4       4       8       9       4       3       4       4
       8       9       4       3       4       4       8       9       4       3
       4       4       8       9       4       3       4       4       8       9
       4       3       4       4       8       9       4       3       4       4
       8       9       4       3       4       4       8       9       4       3
       4       4       8       9       4       3       4       4       8       9
       4       3       4       4       8       9       4       3       4       4
       8       9       4       3       4       4       8       9       4       3
       4       4       8       9       4       3       4       4       8       9
       4       3       4       4       8       9       4       3       4       4
       8       9       4       3       4       4       8       9       4       3
       4       4       8       9       4       3       4       4       8       9
       4       3       4       4       8       9       4       3       4       4
       8       9       4       3       4       4       8       9       4       3
       4       4       8       9       4       3       4       4       8       9
       4       3       4       4       8       9       4       3       4       4
       8       9       4       3       4       4       8       9       4       3
       4       4       8       9       4       3       4       4       8       9
       4       3       4       4       8       9       4       3       4       4
       8       9       4       3       4       4       8       9       4       3
       4       4       8       9       4       3       4       4       8       9
       4       3       4       4       8       9       4       3       4       4
       8       9       4       3       4       4       8       9       4       3
       4       4       8       9       4       3       4       4       8       9
       4       3       4       4       8       9       4       3       4       4
       8       9       4       3       4       4       8       9       4       3
       4       4       8       9       4       3       4       4       8       9
       4       3       4       4       8       9       4       3       4       4
       8       9       4       3       4       4       8       9       4       3
       4       4       8       9       4       3       4       4       8       9
       4       3       4       4       8       9       4       3       4       4
       8       9       4       3       4       4       8       9       4       3
       4       4       8       9       4       3       4       4       8       9
       4       3       4       4       8       9       4       3       4       4
       8       9       4       3       4       4       8       9       4       3
       4       4       8       9       4       3       4       4       8       9
       4       3       4       4       8       9       4       3       4       4
       8       9       4       3       4       4       8       9       4       3
       4       4       8       9       4       3       4       4       8       9
       4       3       4       4       8       9       4       3       4       4
       8       9
%FLAG NUMBER_EXCLUDED_ATOMS                                                     
%FORMAT(10I8)                                                                   
      16       7      16       8      15       4       8       5       4       3
       2       1       1      15       7       8       6       3       2       1
       5       2       1      15       7      11       6       3       2       1
      11       5      13       5       4       9       8       7       3       2
       1       3       2       1       1      10       4      16       7      14
       4      10       8       7       3       2       1       3       2       1
       1      15       7      11       6       3       2       1      11       5
      13       5       4       9       8       7       3       2       1       3
       2       1       1      10       4      10       7       6       3       2
       1       7       3      18       7       8       3       8       5       4
       2       1       1      18       7      11       6       3       2       1
      11       5      13       5       4       9       8       7       3       2
       1       3       2       1       1      18       7      11       6       3
       2       1      11       5      13       5       4       9       8       7
       3       2       1       3       2       1       1      10       4      16
       9       4       3       2      12       5      14       6       5       1
      13       7       9       5       4       2       1       1       8       4
       3       5       4       3       2       1       1       9       4      10
       6       3       2       1      11       4       9       8       7       3
       2       1       3       2       1       1       5       4       3       2
       1       1       5       4       3       2       1       1       5       4
       3       2       1       1       5       4       3       2       1       1
       5       4       3       2       1       1       5       4       3       2
       1       1       5       4       3       2       1       1       5       4
       3       2       1       1       5       4       3       2       1       1
       5       4       3       2       1       1       5       4       3       2
       1       1       5       4       3       2       1       1       5       4
       3       2       1       1       5       4       3       2       1       1
       5       4       3       2       1       1       5       4       3       2
       1       1       5       4       3       2       1       1       5       4
       3       2       1       1       5       4       3       2       1       1
       5       4       3       2       1       1       5       4       3       2
       1       1       5       4       3       2       1       1       5       4
       3       2       1       1       5       4       3       2       1       1
       5       4       3       2       1       1       5       4       3       2
       1       1       5       4       3       2       1       1       5       4
       3       2       1       1       5       4       3       2       1       1
       5       4       3       2       1       1       5       4       3       2
       1       1       5       4       3       2       1       1       5       4
       3       2       1       1       5       4       3       2       1       1
       5       4       3       2       1       1       5       4       3       2
       1       1       5       4       3       2       1       1       5       4
       3       2       1       1       5       4       3       2       1       1
       5       4       3       2       1       1       5       4       3       2
       1       1       5       4       3       2       1       1       5       4
       3       2       1       1       5       4       3       2       1       1
       5       4       3       2       1       1       5       4       3       2
       1       1       5       4       3       2       1       1       5       4
       3       2       1       1       5       4       3       2       1       1
       5       4       3       2       1       1       5       4       3       2
       1       1       5       4       3       2       1       1       5       4
       3       2       1       1       5       4       3       2       1       1
       5       4       3       2       1       1       5       4       3       2
       1       1       5       4       3       2       1       1       5       4
       3       2       1       1       5       4       3       2       1       1
       5       4       3       2       1       1       5       4       3       2
       1       1       5       4       3       2       1       1       5       4
       3       2       1       1       5       4       3       2       1       1
       5       4       3       2       1       1       5       4       3       2
       1       1       5       4       3       2       1       1       5       4
       3       2       1       1       5       4       3       2       1       1
       5       4       3       2       1       1       5       4       3       2
       1       1       5       4       3       2       1       1       5       4
       3       2       1       1       5       4       3       2       1       1
       5       4       3       2       1       1       5       4       3       2
       1       1       5       4       3       2       1       1       5       4
       3       2       1       1       5       4       3       2       1       1
       5       4       3       2       1       1       5       4       3       2
       1       1       5       4       3       2       1       1       5       4
       3       2       1       1       5       4       3       2       1       1
       5       4       3       2       1       1       5       4       3       2
       1       1       5       4       3       2       1       1       5       4
       3       2       1       1       5       4       3       2       1       1
       5       4       3       2       1       1       5       4       3       2
       1       1       5       4       3       2       1       1       5       4
       3       2       1       1       5       4       3       2       1       1
       5       4       3       2       1       1       5       4       3       2
       1       1       5       4       3       2       1       1       5       4
       3       2       1       1       5       4       3       2       1       1
       5       4       3       2       1       1       5       4       3       2
       1       1       5       4       3       2       1       1       5       4
       3       2       1       1       5       4       3       2       1       1
       5       4       3       2       1       1       5       4       3       2
       1       1       5       4       3       2       1       1       5       4
       3       2       1       1       5       4       3       2       1       1
       5       4       3       2       1       1       5       4       3       2
       1       1       5       4       3       2       1       1       5       4
       3       2       1       1       5       4       3       2       1       1
       5       4       3       2       1       1       5       4       3       2
       1       1       5       4       3       2       1       1       5       4
       3       2       1       1       5       4       3       2       1       1
       5       4       3       2       1       1       5       4       3       2
       1       1       5       4       3       2       1       1       5       4
       3       2       1       1       5       4       3       2       1       1
       5       4       3       2       1       1       5       4       3       2
       1       1       5       4       3       2       1       1       5       4
       3       2       1       1       5       4       3       2       1       1
       5       4       3       2       1       1       5       4       3       2
       1       1       5       4       3       2       1       1       5       4
       3       2       1       1       5       4       3       2       1       1
       5       4       3       2       1       1       5       4       3       2
       1       1       5       4       3       2       1       1       5       4
       3       2       1       1       5       4       3       2       1       1
       5       4       3       2       1       1       5       4       3       2
       1       1       5       4       3       2       1       1       5       4
       3       2       1       1       5       4       3       2       1       1
       5       4       3       2       1       1       5       4       3       2
       1       1       5       4       3       2       1       1       5       4
       3       2       1       1       5       4       3       2       1       1
       5       4       3       2       1       1       5       4       3       2
       1       1       5       4       3       2       1       1       5       4
       3       2       1       1       5       4       3       2       1       1
       5       4       3       2       1       1       5       4       3       2
       1       1       5       4       3       2       1       1       5       4
       3       2       1       1       5       4       3       2       1       1
       5       4       3       2       1       1       5       4       3       2
       1       1       5       4       3       2       1       1       5       4
       3       2       1       1       5       4       3       2       1       1
       5       4       3       2       1       1       5       4       3       2
       1       1       5       4       3       2       1       1       5       4
       3       2       1       1       5       4       3       2       1       1
       5       4       3       2       1       1       5       4       3       2
       1       1       5       4       3       2       1       1       5       4
       3       2       1       1       5       4       3       2       1       1
       5       4       3       2       1       1       5       4       3       2
       1       1       5       4       3       2       1       1       5       4
       3       2       1       1       5       4       3       2       1       1
       5       4       3       2       1       1       5       4       3       2
       1       1       5       4       3       2       1       1       5       4
       3       2       1       1       5       4       3       2       1       1
       5       4       3       2       1       1       5       4       3       2
       1       1       5       4       3       2       1       1       5       4
       3       2       1       1       5       4       3       2       1       1
       5       4       3       2       1       1       5       4       3       2
       1       1       5       4       3       2       1       1       5       4
       3       2       1       1       5       4       3       2       1       1
       5       4       3       2       1       1       5       4       3       2
       1       1       5       4       3       2       1       1       5       4
       3       2       1       1       5       4       3       2       1       1
       5       4       3       2       1       1       5       4       3       2
       1       1       5       4       3       2       1       1       5       4
       3       2       1       1       5       4       3       2       1       1
       5       4       3       2       1       1       5       4       3       2
       1       1       5       4       3       2       1       1       5       4
       3       2       1       1       5       4       3       2       1       1
       5       4       3       2       1       1       5       4       3       2
       1       1       5       4       3       2       1       1       5       4
       3       2       1       1       5       4       3       2       1       1
       5       4       3       2       1       1       5       4       3       2
       1       1       5       4       3       2       1       1       5       4
       3       2       1       1       5       4       3       2       1       1
       5       4       3       2       1       1       5       4       3       2
       1       1       5       4       3       2       1       1       5       4
       3       2       1       1       5       4       3       2       1       1
       5       4       3       2       1       1       5       4       3       2
       1       1       5       4       3       2       1       1       5       4
       3       2       1       1       5       4       3       2       1       1
       5       4       3       2       1       1       5       4       3       2
       1       1       5       4       3       2       1       1       5       4
       3       2       1       1       5       4       3       2       1       1
       5       4       3       2       1       1       5       4       3       2
       1       1       5       4       3       2       1       1       5       4
       3       2       1       1       5       4       3       2       1       1
       5       4       3       2       1       1       5       4       3       2
       1       1       5       4       3       2       1       1       5       4
       3       2       1       1       5       4       3       2       1       1
       5       4       3       2       1       1       5       4       3       2
       1       1       5       4       3       2       1       1       5       4
       3       2       1       1       5       4       3       2       1       1
       5       4       3       2       1       1       5       4       3       2
       1       1       5       4       3       2       1       1       5       4
       3       2       1       1       5       4       3       2       1       1
       5       4       3       2       1       1       5       4       3       2
       1       1       5       4       3       2       1       1       5       4
       3       2       1       1       5       4       3       2       1       1
       5       4       3       2       1       1       5       4       3       2
       1       1       5       4       3       2       1       1       5       4
       3       2       1       1       5       4       3       2       1       1
       5       4       3       2       1       1       5       4       3       2
       1       1       5       4       3       2       1       1       5       4
       3       2       1       1       5       4       3       2       1       1
       5       4       3       2       1       1       5       4       3       2
       1       1       5       4       3       2       1       1       5       4
       3       2       1       1       5       4       3       2       1       1
       5       4       3       2       1       1       5       4       3       2
       1       1       5       4       3       2       1       1       5       4
       3       2       1       1       5       4       3       2       1       1
       5       4       3       2       1       1       5       4       3       2
       1       1       5       4       3       2       1       1       5       4
       3       2       1       1       5       4       3       2       1       1
       5       4       3       2       1       1       5       4       3       2
       1       1       5       4       3       2       1       1       5       4
       3       2       1       1       5       4       3       2       1       1
       5       4       3       2       1       1       5       4       3       2
       1       1       5       4       3       2       1       1       5       4
       3       2       1       1       5       4       3       2       1       1
       5       4       3       2       1       1       5       4       3       2
       1       1       5       4       3       2       1       1       5       4
       3       2       1       1       5       4       3       2       1       1
       5       4       3       2       1       1       5       4       3       2
       1       1       5       4       3       2       1       1       5       4
       3       2       1       1       5       4       3       2       1       1
       5       4       3       2       1       1       5       4       3       2
       1       1       5       4       3       2       1       1       5       4
       3       2       1       1       5       4       3       2       1       1
       5       4       3       2       1       1       5       4       3       2
       1       1       5       4       3       2       1       1       5       4
       3       2       1       1       5       4       3       2       1       1
       5       4       3       2       1       1       5       4       3       2
       1       1       5       4       3       2       1       1       5       4
       3       2       1       1       5       4       3       2       1       1
       5       4       3       2       1       1       5       4       3       2
       1       1       5       4       3       2       1       1       5       4
       3       2       1       1       5       4       3       2       1       1
       5       4       3       2       1       1       5       4       3       2
       1       1       5       4       3       2       1       1       5       4
       3       2       1       1       5       4       3       2       1       1
       5       4       3       2       1       1       5       4       3       2
       1       1       5       4       3       2       1       1       5       4
       3       2       1       1       5       4       3       2       1       1
       5       4       3       2       1       1       5       4       3       2
       1       1       5       4       3       2       1       1       5       4
       3       2       1       1       5       4       3       2       1       1
       5       4       3       2       1       1       5       4       3       2
       1       1       5       4       3       2       1       1       5       4
       3       2       1       1       5       4       3       2       1       1
       5       4       3       2       1       1       5       4       3       2
       1       1       5       4       3       2       1       1       5       4
       3       2       1       1       5       4       3       2       1       1
       5       4       3       2       1       1       5       4       3       2
       1       1       5       4       3       2       1       1       5       4
       3       2       1       1       5       4       3       2       1       1
       5       4       3       2       1       1       5       4       3       2
       1       1       5       4       3       2       1       1       5       4
       3       2       1       1       5       4       3       2       1       1
       5       4       3       2       1       1       5       4       3       2
       1       1       5       4       3       2       1       1       5       4
       3       2       1       1       5       4       3       2       1       1
       5       4       3       2       1       1       5       4       3       2
       1       1       5       4       3       2       1       1       5       4
       3       2       1       1       5       4       3       2       1       1
       5       4       3       2       1       1       5       4       3       2
       1       1       5       4       3       2       1       1       5       4
       3       2       1       1       5       4       3       2       1       1
       5       4       3       2       1       1       5       4       3       2
       1       1       5       4       3       2       1       1       5       4
       3       2       1       1       5       4       3       2       1       1
       5       4       3       2       1       1       5       4       3       2
       1       1       5       4       3       2       1       1       5       4
       3       2       1       1       5       4       3       2       1       1
       5       4       3       2       1       1       5       4       3       2
       1       1       5       4       3       2       1       1       5       4
       3       2       1       1       5       4       3       2       1       1
       5       4       3       2       1       1       5       4       3       2
       1       1       5       4       3       2       1       1       5       4
       3       2       1       1       5       4       3       2       1       1
       5       4       3       2       1       1       5       4       3       2
       1       1       5       4       3       2       1       1       5       4
       3       2       1       1       5       4       3       2       1       1
       5       4       3       2       1       1       5       4       3       2
       1       1       5       4       3       2       1       1       5       4
       3       2       1       1       5       4       3       2       1       1
       5       4       3       2       1       1       5       4       3       2
       1       1       5       4       3       2       1       1       5       4
       3       2       1       1       5       4       3       2       1       1
       5       4       3       2       1       1       5       4       3       2
       1       1       5       4       3       2       1       1       5       4
       3       2       1       1       5       4       3       2       1       1
       5       4       3       2       1       1       5       4       3       2
       1       1       5       4       3       2       1       1       5       4
       3       2       1       1       5       4       3       2       1       1
       5       4       3       2       1       1       5       4       3       2
       1       1       5       4       3       2       1       1       5       4
       3       2       1       1       5       4       3       2       1       1
       5       4       3       2       1       1       5       4       3       2
       1       1       5       4       3       2       1       1       5       4
       3       2       1       1       5       4       3       2       1       1
       5       4       3       2       1       1       5       4       3       2
       1       1       5       4       3       2       1       1       5       4
       3       2       1       1       5       4       3       2       1       1
       5       4       3       2       1       1       5       4       3       2
       1       1       5       4       3       2       1       1       5       4
       3       2       1       1       5       4       3       2       1       1
       5       4       3       2       1       1       5       4       3       2
       1       1       5       4       3       2       1       1       5       4
       3       2       1       1       5       4       3       2       1       1
       5       4       3       2       1       1       5       4       3       2
       1       1       5       4       3       2       1       1       5       4
       3       2       1       1       5       4       3       2       1       1
       5       4       3       2       1       1       5       4       3       2
       1       1       5       4       3       2       1       1       5       4
       3       2       1       1       5       4       3       2       1       1
       5       4       3       2       1       1       5       4       3       2
       1       1       5       4       3       2       1       1       5       4
       3       2       1       1       5       4       3       2       1       1
       5       4       3       2       1       1       5       4       3       2
       1       1       5       4       3       2       1       1       5       4
       3       2       1       1       5       4       3       2       1       1
       5       4       3       2       1       1       5       4       3       2
       1       1       5       4       3       2       1       1       5       4
       3       2       1       1       5       4       3       2       1       1
       5       4       3       2       1       1       5       4       3       2
       1       1       5       4       3       2       1       1       5       4
       3       2       1       1       5       4       3       2       1       1
       5       4       3       2       1       1       5       4       3       2
       1       1       5       4       3       2       1       1       5       4
       3       2       1       1       5       4       3       2       1       1
       5       4       3       2       1       1       5       4       3       2
       1       1       5       4       3       2       1       1       5       4
       3       2       1       1       5       4       3       2       1       1
       5       4       3       2       1       1       5       4       3       2
       1       1       5       4       3       2       1       1       5       4
       3       2       1       1       5       4       3       2       1       1
       5       4       3       2       1       1       5       4       3       2
       1       1       5       4       3       2       1       1       5       4
       3       2       1       1       5       4       3       2       1       1
       5       4       3       2       1       1       5       4       3       2
       1       1       5       4       3       2       1       1       5       4
       3       2       1       1       5       4       3       2       1       1
       5       4       3       2       1       1       5       4       3       2
       1       1       5       4       3       2       1       1       5       4
       3       2       1       1       5       4       3       2       1       1
       5       4       3       2       1       1       5       4       3       2
       1       1       5       4       3       2       1       1       5       4
       3       2       1       1       5       4       3       2       1       1
       5       4       3       2       1       1       5       4       3       2
       1       1       5       4       3       2       1       1       5       4
       3       2       1       1       5       4       3       2       1       1
       5       4       3       2       1       1       5       4       3       2
       1       1       5       4       3       2       1       1       5       4
       3       2       1       1       5       4       3       2       1       1
       5       4       3       2       1       1       5       4       3       2
       1       1       5       4       3       2       1       1       5       4
       3       2       1       1       5       4       3       2       1       1
       5       4       3       2       1       1       5       4       3       2
       1       1       5       4       3       2       1       1       5       4
       3       2       1       1       5       4       3       2       1       1
       5       4       3       2       1       1       5       4       3       2
       1       1       5       4       3       2       1       1       5       4
       3       2       1       1       5       4       3       2       1       1
       5       4       3       2       1       1       5       4       3       2
       1       1       5       4       3       2       1       1       5       4
       3       2       1       1       5       4       3       2       1       1
       5       4       3       2       1       1       5       4       3       2
       1       1       5       4       3       2       1       1       5       4
       3       2       1       1       5       4       3       2       1       1
       5       4       3       2       1       1       5       4       3       2
       1       1       5       4       3       2       1       1       5       4
       3       2       1       1       5       4       3       2       1       1
       5       4       3       2       1       1       5       4       3       2
       1       1       5       4       3       2       1       1       5       4
       3       2       1       1       5       4       3       2       1       1
       5       4       3       2       1       1       5       4       3       2
       1       1       5       4       3       2       1       1       5       4
       3       2       1       1       5       4       3       2       1       1
       5       4       3       2       1       1       5       4       3       2
       1       1       5       4       3       2       1       1       5       4
       3       2       1       1       5       4       3       2       1       1
       5       4       3       2       1       1       5       4       3       2
       1       1       5       4       3       2       1       1       5       4
       3       2       1       1       5       4       3       2       1       1
       5       4       3       2       1       1       5       4       3       2
       1       1       5       4       3       2       1       1       5       4
       3       2       1       1       5       4       3       2       1       1
       5       4       3       2       1       1       5       4       3       2
       1       1       5       4       3       2       1       1       5       4
       3       2       1       1       5       4       3       2       1       1
       5       4       3       2       1       1       5       4       3       2
       1       1       5       4       3       2       1       1       5       4
       3       2       1       1       5       4       3       2       1       1
       5       4       3       2       1       1       5       4       3       2
       1       1       5       4       3       2       1       1       5       4
       3       2       1       1       5       4       3       2       1       1
       5       4       3       2       1       1       5       4       3       2
       1       1       5       4       3       2       1       1       5       4
       3       2       1       1       5       4       3       2       1       1
       5       4       3       2       1       1       5       4       3       2
       1       1       5       4       3       2       1       1       5       4
       3       2       1       1       5       4       3       2       1       1
       5       4       3       2       1       1       5       4       3       2
       1       1       5       4       3       2       1       1       5       4
       3       2       1       1       5       4       3       2       1       1
       5       4       3       2       1       1       5       4       3       2
       1       1       5       4       3       2       1       1       5       4
       3       2       1       1       5       4       3       2       1       1
       5       4       3       2       1       1       5       4       3       2
       1       1       5       4       3       2       1       1       5       4
       3       2       1       1       5       4       3       2       1       1
       5       4       3       2       1       1       5       4       3       2
       1       1       5       4       3       2       1       1       5       4
       3       2       1       1       5       4       3       2       1       1
       5       4       3       2       1       1       5       4       3       2
       1       1       5       4       3       2       1       1       5       4
       3       2       1       1       5       4       3       2       1       1
       5       4       3       2       1       1       5       4       3       2
       1       1       5       4       3       2       1       1       5       4
       3       2       1       1       5       4       3       2       1       1
       5       4       3       2       1       1       5       4       3       2
       1       1       5       4       3       2       1       1       5       4
       3       2       1       1       5       4       3       2       1       1
       5       4       3       2       1       1       5       4       3       2
       1       1       5       4       3       2       1       1       5       4
       3       2       1       1       5       4       3       2       1       1
       5       4       3       2       1       1       5       4       3       2
       1       1       5       4       3       2       1       1       5       4
       3       2       1       1       5       4       3       2       1       1
       5       4       3       2       1       1       5       4       3       2
       1       1       5       4       3       2       1       1       5       4
       3       2       1       1       5       4       3       2       1       1
       5       4       3       2       1       1       5       4       3       2
       1       1       5       4       3       2       1       1       5       4
       3       2       1       1       5       4       3       2       1       1
       5       4       3       2       1       1       5       4       3       2
       1       1       5       4       3       2       1       1       5       4
       3       2       1       1       5       4       3       2       1       1
       5       4       3       2       1       1       5       4       3       2
       1       1       5       4       3       2       1       1       5       4
       3       2       1       1       5       4       3       2       1       1
       5       4       3       2       1       1       5       4       3       2
       1       1       5       4       3       2       1       1       5       4
       3       2       1       1       5       4       3       2       1       1
       5       4       3       2       1       1       5       4       3       2
       1       1       5       4       3       2       1       1       5       4
       3       2       1       1       5       4       3       2       1       1
       5       4       3       2       1       1       5       4       3       2
       1       1       5       4       3       2       1       1       5       4
       3       2       1       1       5       4       3       2       1       1
       5       4       3       2       1       1       5       4       3       2
       1       1       5       4       3       2       1       1       5       4
       3       2       1       1       5       4       3       2       1       1
       5       4       3       2       1       1       5       4       3       2
       1       1       5       4       3       2       1       1       5       4
       3       2       1       1       5       4       3       2       1       1
       5       4       3       2       1       1       5       4       3       2
       1       1       5       4       3       2       1       1       5       4
       3       2       1       1       5       4       3       2       1       1
       5       4       3       2       1       1       5       4       3       2
       1       1       5       4       3       2       1       1       5       4
       3       2       1       1       5       4       3       2       1       1
       5       4       3       2       1       1       5       4       3       2
       1       1       5       4       3       2       1       1       5       4
       3       2       1       1       5       4       3       2       1       1
       5       4       3       2       1       1       5       4       3       2
       1       1       5       4       3       2       1       1       5       4
       3       2       1       1       5       4       3       2       1       1
       5       4       3       2       1       1       5       4       3       2
       1       1       5       4       3       2       1       1       5       4
       3       2       1       1       5       4       3       2       1       1
       5       4       3       2       1       1       5       4       3       2
       1       1       5       4       3       2       1       1       5       4
       3       2       1       1       5       4       3       2       1       1
       5       4       3       2       1       1       5       4       3       2
       1       1       5       4       3       2       1       1       5       4
       3       2       1       1       5       4       3       2       1       1
       5       4       3       2       1       1       5       4       3       2
       1       1       5       4       3       2       1       1       5       4
       3       2       1       1       5       4       3       2       1       1
       5       4       3       2       1       1       5       4       3       2
       1       1       5       4       3       2       1       1       5       4
       3       2       1       1       5       4       3       2       1       1
       5       4       3       2       1       1       5       4       3       2
       1       1       5       4       3       2       1       1       5       4
       3       2       1       1       5       4       3       2       1       1
       5       4       3       2       1       1       5       4       3       2
       1       1       5       4       3       2       1       1       5       4
       3       2       1       1       5       4       3       2       1       1
       5       4       3       2       1       1       5       4       3       2
       1       1       5       4       3       2       1       1       5       4
       3       2       1       1       5       4       3       2       1       1
       5       4       3       2       1       1       5       4       3       2
       1       1       5       4       3       2       1       1       5       4
       3       2       1       1       5       4       3       2       1       1
       5       4       3       2       1       1       5       4       3       2
       1       1       5       4       3       2       1       1       5       4
       3       2       1       1       5       4       3       2       1       1
       5       4       3       2       1       1       5       4       3       2
       1       1       5       4       3       2       1       1       5       4
       3       2       1       1       5       4       3       2       1       1
       5       4       3       2       1       1       5       4       3       2
       1       1       5       4       3       2       1       1       5       4
       3       2       1       1       5       4       3       2       1       1
       5       4       3       2       1       1       5       4       3       2
       1       1       5       4       3       2       1       1       5       4
       3       2       1       1       5       4       3       2       1       1
       5       4       3       2       1       1       5       4       3       2
       1       1       5       4       3       2       1       1       5       4
       3       2       1       1       5       4       3       2       1       1
       5       4       3       2       1       1       5       4       3       2
       1       1       5       4       3       2       1       1       5       4
       3       2       1       1       5       4       3       2       1       1
       5       4       3       2       1       1       5       4       3       2
       1       1       5       4       3       2       1       1       5       4
       3       2       1       1       5       4       3       2       1       1
       5       4       3       2       1       1       5       4       3       2
       1       1       5       4       3       2       1       1       5       4
       3       2       1       1       5       4       3       2       1       1
       5       4       3       2       1       1       5       4       3       2
       1       1       5       4       3       2       1       1       5       4
       3       2       1       1       5       4       3       2       1       1
       5       4       3       2       1       1       5       4       3       2
       1       1       5       4       3       2       1       1       5       4
       3       2       1       1       5       4       3       2       1       1
       5       4       3       2       1       1       5       4       3       2
       1       1       5       4       3       2       1       1       5       4
       3       2       1       1       5       4       3       2       1       1
       5       4       3       2       1       1       5       4       3       2
       1       1       5       4       3       2       1       1       5       4
       3       2       1       1       5       4       3       2       1       1
       5       4       3       2       1       1       5       4       3       2
       1       1       5       4       3       2       1       1       5       4
       3       2       1       1       5       4       3       2       1       1
       5       4       3       2       1       1       5       4       3       2
       1       1       5       4       3       2       1       1       5       4
       3       2       1       1       5       4       3       2       1       1
       5       4       3       2       1       1       5       4       3       2
       1       1       5       4       3       2       1       1       5       4
       3       2       1       1       5       4       3       2       1       1
       5       4       3       2       1       1       5       4       3       2
       1       1       5       4       3       2       1       1       5       4
       3       2       1       1       5       4       3       2       1       1
       5       4       3       2       1       1       5       4       3       2
       1       1
%FLAG NONBONDED_PARM_INDEX                                                      
%FORMAT(10I8)                                                                   
       1       2       4       7      11      16      22      29      37      46
       2       3       5       8      12      17      23      30      38      47
       4       5       6       9      13      18      24      31      39      48
       7       8       9      10      14      19      25      32      40      49
      11      12      13      14      15      20      26      33      41      50
      16      17      18      19      20      21      27      34      42      51
      22      23      24      25      26      27      28      35      43      52
      29      30      31      32      33      34      35      36      44      53
      37      38      39      40      41      42      43      44      45      54
      46      47      48      49      50      51      52      53      54      55
%FLAG RESIDUE_LABEL                                                             
%FORMAT(20a4)                                                                   
ABA SAR MLE VAL MLE ALA DAL MLE MLE BMT MVA MOH MOH MOH MOH MOH MOH MOH MOH MOH 
MOH MOH MOH MOH MOH MOH MOH MOH MOH MOH MOH MOH MOH MOH MOH MOH MOH MOH MOH MOH 
MOH MOH MOH MOH MOH MOH MOH MOH MOH MOH MOH MOH MOH MOH MOH MOH MOH MOH MOH MOH 
MOH MOH MOH MOH MOH MOH MOH MOH MOH MOH MOH MOH MOH MOH MOH MOH MOH MOH MOH MOH 
MOH MOH MOH MOH MOH MOH MOH MOH MOH MOH MOH MOH MOH MOH MOH MOH MOH MOH MOH MOH 
MOH MOH MOH MOH MOH MOH MOH MOH MOH MOH MOH MOH MOH MOH MOH MOH MOH MOH MOH MOH 
MOH MOH MOH MOH MOH MOH MOH MOH MOH MOH MOH MOH MOH MOH MOH MOH MOH MOH MOH MOH 
MOH MOH MOH MOH MOH MOH MOH MOH MOH MOH MOH MOH MOH MOH MOH MOH MOH MOH MOH MOH 
MOH MOH MOH MOH MOH MOH MOH MOH MOH MOH MOH MOH MOH MOH MOH MOH MOH MOH MOH MOH 
MOH MOH MOH MOH MOH MOH MOH MOH MOH MOH MOH MOH MOH MOH MOH MOH MOH MOH MOH MOH 
MOH MOH MOH MOH MOH MOH MOH MOH MOH MOH MOH MOH MOH MOH MOH MOH MOH MOH MOH MOH 
MOH MOH MOH MOH MOH MOH MOH MOH MOH MOH MOH MOH MOH MOH MOH MOH MOH MOH MOH MOH 
MOH MOH MOH MOH MOH MOH MOH MOH MOH MOH MOH MOH MOH MOH MOH MOH MOH MOH MOH MOH 
MOH MOH MOH MOH MOH MOH MOH MOH MOH MOH MOH MOH MOH MOH MOH MOH MOH MOH MOH MOH 
MOH MOH MOH MOH MOH MOH MOH MOH MOH MOH MOH MOH MOH MOH MOH MOH MOH MOH MOH MOH 
MOH MOH MOH MOH MOH MOH MOH MOH MOH MOH MOH MOH MOH MOH MOH MOH MOH MOH MOH MOH 
MOH MOH MOH MOH MOH MOH MOH MOH MOH MOH MOH MOH MOH MOH MOH MOH MOH MOH MOH MOH 
MOH MOH MOH MOH MOH MOH MOH MOH MOH MOH MOH MOH MOH MOH MOH MOH MOH MOH MOH MOH 
MOH MOH MOH MOH MOH MOH MOH MOH MOH MOH MOH MOH MOH MOH MOH MOH MOH MOH MOH MOH 
MOH MOH MOH MOH MOH MOH MOH MOH MOH MOH MOH MOH MOH MOH MOH MOH MOH MOH MOH MOH 
MOH MOH MOH MOH MOH MOH MOH MOH MOH MOH MOH MOH MOH MOH MOH MOH MOH MOH MOH MOH 
MOH MOH MOH MOH MOH MOH MOH MOH MOH MOH MOH MOH MOH MOH MOH MOH MOH MOH MOH MOH 
MOH MOH MOH MOH MOH MOH MOH MOH MOH MOH MOH MOH MOH MOH MOH MOH MOH MOH MOH MOH 
MOH MOH MOH MOH MOH MOH MOH MOH MOH MOH MOH MOH MOH MOH MOH MOH MOH MOH MOH MOH 
MOH MOH MOH MOH MOH MOH MOH MOH MOH MOH MOH MOH MOH MOH MOH MOH MOH MOH MOH MOH 
MOH MOH MOH MOH MOH MOH MOH MOH MOH MOH MOH MOH MOH MOH MOH MOH MOH MOH MOH MOH 
MOH MOH MOH MOH MOH MOH MOH MOH MOH MOH MOH MOH MOH MOH MOH MOH MOH MOH MOH MOH 
MOH MOH MOH MOH MOH MOH MOH MOH MOH MOH MOH MOH MOH MOH MOH MOH MOH MOH MOH MOH 
MOH MOH MOH MOH MOH MOH MOH MOH MOH MOH MOH MOH MOH MOH MOH MOH MOH MOH MOH MOH 
MOH MOH MOH MOH MOH MOH MOH MOH MOH MOH MOH MOH MOH MOH MOH MOH MOH MOH MOH MOH 
MOH MOH MOH MOH MOH MOH MOH MOH MOH MOH MOH MOH MOH MOH MOH MOH MOH MOH MOH MOH 
MOH MOH MOH MOH MOH MOH MOH MOH MOH MOH MOH MOH MOH MOH MOH MOH MOH MOH MOH MOH 
MOH MOH MOH MOH MOH MOH MOH MOH MOH MOH MOH MOH MOH MOH MOH MOH MOH MOH MOH MOH 
MOH MOH MOH MOH MOH MOH MOH MOH MOH MOH MOH MOH MOH MOH MOH MOH MOH MOH MOH MOH 
MOH MOH MOH MOH MOH MOH MOH MOH MOH MOH MOH MOH MOH MOH MOH MOH MOH MOH MOH MOH 
MOH MOH MOH MOH MOH MOH MOH MOH MOH MOH MOH MOH MOH MOH MOH MOH MOH MOH MOH MOH 
MOH MOH MOH MOH MOH MOH MOH MOH MOH MOH MOH MOH MOH MOH MOH MOH MOH MOH MOH MOH 
MOH MOH MOH MOH MOH MOH MOH MOH MOH MOH MOH MOH MOH MOH MOH MOH MOH MOH MOH MOH 
MOH MOH MOH MOH MOH MOH MOH MOH MOH MOH MOH MOH MOH MOH MOH MOH MOH MOH MOH MOH 
MOH MOH MOH MOH MOH MOH MOH MOH MOH MOH MOH MOH MOH MOH MOH MOH MOH MOH MOH MOH 
MOH MOH MOH MOH MOH MOH MOH MOH MOH MOH MOH MOH MOH MOH MOH MOH MOH MOH MOH MOH 
MOH MOH MOH MOH MOH MOH MOH MOH MOH MOH MOH MOH MOH MOH MOH MOH MOH MOH MOH MOH 
MOH MOH MOH MOH MOH MOH MOH 
%FLAG RESIDUE_POINTER                                                           
%FORMAT(10I8)                                                                   
       1      14      24      46      62      84      94     104     126     148
     178     197     203     209     215     221     227     233     239     245
     251     257     263     269     275     281     287     293     299     305
     311     317     323     329     335     341     347     353     359     365
     371     377     383     389     395     401     407     413     419     425
     431     437     443     449     455     461     467     473     479     485
     491     497     503     509     515     521     527     533     539     545
     551     557     563     569     575     581     587     593     599     605
     611     617     623     629     635     641     647     653     659     665
     671     677     683     689     695     701     707     713     719     725
     731     737     743     749     755     761     767     773     779     785
     791     797     803     809     815     821     827     833     839     845
     851     857     863     869     875     881     887     893     899     905
     911     917     923     929     935     941     947     953     959     965
     971     977     983     989     995    1001    1007    1013    1019    1025
    1031    1037    1043    1049    1055    1061    1067    1073    1079    1085
    1091    1097    1103    1109    1115    1121    1127    1133    1139    1145
    1151    1157    1163    1169    1175    1181    1187    1193    1199    1205
    1211    1217    1223    1229    1235    1241    1247    1253    1259    1265
    1271    1277    1283    1289    1295    1301    1307    1313    1319    1325
    1331    1337    1343    1349    1355    1361    1367    1373    1379    1385
    1391    1397    1403    1409    1415    1421    1427    1433    1439    1445
    1451    1457    1463    1469    1475    1481    1487    1493    1499    1505
    1511    1517    1523    1529    1535    1541    1547    1553    1559    1565
    1571    1577    1583    1589    1595    1601    1607    1613    1619    1625
    1631    1637    1643    1649    1655    1661    1667    1673    1679    1685
    1691    1697    1703    1709    1715    1721    1727    1733    1739    1745
    1751    1757    1763    1769    1775    1781    1787    1793    1799    1805
    1811    1817    1823    1829    1835    1841    1847    1853    1859    1865
    1871    1877    1883    1889    1895    1901    1907    1913    1919    1925
    1931    1937    1943    1949    1955    1961    1967    1973    1979    1985
    1991    1997    2003    2009    2015    2021    2027    2033    2039    2045
    2051    2057    2063    2069    2075    2081    2087    2093    2099    2105
    2111    2117    2123    2129    2135    2141    2147    2153    2159    2165
    2171    2177    2183    2189    2195    2201    2207    2213    2219    2225
    2231    2237    2243    2249    2255    2261    2267    2273    2279    2285
    2291    2297    2303    2309    2315    2321    2327    2333    2339    2345
    2351    2357    2363    2369    2375    2381    2387    2393    2399    2405
    2411    2417    2423    2429    2435    2441    2447    2453    2459    2465
    2471    2477    2483    2489    2495    2501    2507    2513    2519    2525
    2531    2537    2543    2549    2555    2561    2567    2573    2579    2585
    2591    2597    2603    2609    2615    2621    2627    2633    2639    2645
    2651    2657    2663    2669    2675    2681    2687    2693    2699    2705
    2711    2717    2723    2729    2735    2741    2747    2753    2759    2765
    2771    2777    2783    2789    2795    2801    2807    2813    2819    2825
    2831    2837    2843    2849    2855    2861    2867    2873    2879    2885
    2891    2897    2903    2909    2915    2921    2927    2933    2939    2945
    2951    2957    2963    2969    2975    2981    2987    2993    2999    3005
    3011    3017    3023    3029    3035    3041    3047    3053    3059    3065
    3071    3077    3083    3089    3095    3101    3107    3113    3119    3125
    3131    3137    3143    3149    3155    3161    3167    3173    3179    3185
    3191    3197    3203    3209    3215    3221    3227    3233    3239    3245
    3251    3257    3263    3269    3275    3281    3287    3293    3299    3305
    3311    3317    3323    3329    3335    3341    3347    3353    3359    3365
    3371    3377    3383    3389    3395    3401    3407    3413    3419    3425
    3431    3437    3443    3449    3455    3461    3467    3473    3479    3485
    3491    3497    3503    3509    3515    3521    3527    3533    3539    3545
    3551    3557    3563    3569    3575    3581    3587    3593    3599    3605
    3611    3617    3623    3629    3635    3641    3647    3653    3659    3665
    3671    3677    3683    3689    3695    3701    3707    3713    3719    3725
    3731    3737    3743    3749    3755    3761    3767    3773    3779    3785
    3791    3797    3803    3809    3815    3821    3827    3833    3839    3845
    3851    3857    3863    3869    3875    3881    3887    3893    3899    3905
    3911    3917    3923    3929    3935    3941    3947    3953    3959    3965
    3971    3977    3983    3989    3995    4001    4007    4013    4019    4025
    4031    4037    4043    4049    4055    4061    4067    4073    4079    4085
    4091    4097    4103    4109    4115    4121    4127    4133    4139    4145
    4151    4157    4163    4169    4175    4181    4187    4193    4199    4205
    4211    4217    4223    4229    4235    4241    4247    4253    4259    4265
    4271    4277    4283    4289    4295    4301    4307    4313    4319    4325
    4331    4337    4343    4349    4355    4361    4367    4373    4379    4385
    4391    4397    4403    4409    4415    4421    4427    4433    4439    4445
    4451    4457    4463    4469    4475    4481    4487    4493    4499    4505
    4511    4517    4523    4529    4535    4541    4547    4553    4559    4565
    4571    4577    4583    4589    4595    4601    4607    4613    4619    4625
    4631    4637    4643    4649    4655    4661    4667    4673    4679    4685
    4691    4697    4703    4709    4715    4721    4727    4733    4739    4745
    4751    4757    4763    4769    4775    4781    4787    4793    4799    4805
    4811    4817    4823    4829    4835    4841    4847    4853    4859    4865
    4871    4877    4883    4889    4895    4901    4907    4913    4919    4925
    4931    4937    4943    4949    4955    4961    4967    4973    4979    4985
    4991    4997    5003    5009    5015    5021    5027    5033    5039    5045
    5051    5057    5063    5069    5075    5081    5087    5093    5099    5105
    5111    5117    5123    5129    5135    5141    5147    5153    5159    5165
    5171    5177    5183    5189    5195    5201    5207
%FLAG BOND_FORCE_CONSTANT                                                       
%FORMAT(5E16.8)                                                                 
  3.40000000E+02  3.35000000E+02  5.70000000E+02  3.15000000E+02  4.90000000E+02
  3.40000000E+02  3.10000000E+02  3.40000000E+02  3.15000000E+02  3.10000000E+02
  4.35000000E+02  3.35000000E+02  3.65000000E+02  3.15000000E+02  5.50000000E+02
  5.55000000E+02  3.20000000E+02
%FLAG BOND_EQUIL_VALUE                                                          
%FORMAT(5E16.8)                                                                 
  1.09000000E+00  1.44900000E+00  1.22900000E+00  1.52200000E+00  1.33500000E+00
  1.09000000E+00  1.52600000E+00  1.09000000E+00  1.52200000E+00  1.52600000E+00
  1.01000000E+00  1.44900000E+00  1.08000000E+00  1.51000000E+00  1.35000000E+00
  9.60000000E-01  1.41000000E+00
%FLAG ANGLE_FORCE_CONSTANT                                                      
%FORMAT(5E16.8)                                                                 
  3.50000000E+01  7.00000000E+01  5.00000000E+01  5.00000000E+01  8.00000000E+01
  8.00000000E+01  6.50000000E+01  5.00000000E+01  5.00000000E+01  3.50000000E+01
  5.00000000E+01  6.50000000E+01  5.00000000E+01  5.00000000E+01  5.00000000E+01
  8.00000000E+01  7.00000000E+01  5.00000000E+01  4.00000000E+01  5.00000000E+01
  5.00000000E+01  5.00000000E+01  6.50000000E+01  8.00000000E+01  4.00000000E+01
  5.00000000E+01  8.00000000E+01  6.50000000E+01  5.00000000E+01  7.00000000E+01
  5.00000000E+01  5.00000000E+01  6.50000000E+01  5.00000000E+01  5.00000000E+01
  5.50000000E+01
%FLAG ANGLE_EQUIL_VALUE                                                         
%FORMAT(5E16.8)                                                                 
  1.91113635E+00  2.03505478E+00  2.05948940E+00  1.91113635E+00  2.10137732E+00
  2.14501057E+00  1.92160833E+00  1.91113635E+00  2.12755727E+00  1.91113635E+00
  1.91113635E+00  1.93906163E+00  1.91113635E+00  1.91113635E+00  2.12755727E+00
  2.10137732E+00  2.03505478E+00  1.91113635E+00  1.91113635E+00  2.06018753E+00
  2.09439600E+00  1.91113635E+00  1.92160833E+00  1.91462701E+00  1.91113635E+00
  1.91113635E+00  1.91462701E+00  1.93906163E+00  2.09439600E+00  2.08916001E+00
  1.91113635E+00  2.08916001E+00  1.93731630E+00  1.91113635E+00  1.91113635E+00
  1.89368305E+00
%FLAG DIHEDRAL_FORCE_CONSTANT                                                   
%FORMAT(5E16.8)                                                                 
  0.00000000E+00  2.50000000E+00  8.00000000E-01  8.00000000E-02  0.00000000E+00
  2.00000000E+00  2.00000000E+00  4.00000000E-01  0.00000000E+00  1.50000000E-01
  2.00000000E-01  2.00000000E-01  0.00000000E+00  2.70000000E-01  4.20000000E-01
  1.55555556E-01  1.60000000E-01  4.50000000E-01  1.58000000E+00  5.50000000E-01
  2.00000000E-01  2.50000000E-01  1.80000000E-01  1.90000000E+00  6.65000000E+00
  0.00000000E+00  1.15000000E+00  3.80000000E-01  2.50000000E-01  1.66666667E-01
  1.49000000E+00  1.56000000E-01  1.00000000E+00  1.05000000E+01  1.10000000E+00
%FLAG DIHEDRAL_PERIODICITY                                                      
%FORMAT(5E16.8)                                                                 
  2.00000000E+00  2.00000000E+00  1.00000000E+00  3.00000000E+00  2.00000000E+00
  1.00000000E+00  2.00000000E+00  3.00000000E+00  4.00000000E+00  3.00000000E+00
  1.00000000E+00  2.00000000E+00  1.00000000E+00  2.00000000E+00  3.00000000E+00
  3.00000000E+00  3.00000000E+00  1.00000000E+00  2.00000000E+00  3.00000000E+00
  1.00000000E+00  2.00000000E+00  3.00000000E+00  1.00000000E+00  2.00000000E+00
  3.00000000E+00  1.00000000E+00  3.00000000E+00  1.00000000E+00  3.00000000E+00
  2.00000000E+00  3.00000000E+00  2.00000000E+00  2.00000000E+00  2.00000000E+00
%FLAG DIHEDRAL_PHASE                                                            
%FORMAT(5E16.8)                                                                 
  0.00000000E+00  3.14159400E+00  0.00000000E+00  3.14159400E+00  3.14159400E+00
  0.00000000E+00  0.00000000E+00  0.00000000E+00  0.00000000E+00  0.00000000E+00
  0.00000000E+00  0.00000000E+00  0.00000000E+00  0.00000000E+00  0.00000000E+00
  0.00000000E+00  0.00000000E+00  3.14159400E+00  3.14159400E+00  3.14159400E+00
  3.14159400E+00  3.14159400E+00  0.00000000E+00  3.14159400E+00  3.14159400E+00
  0.00000000E+00  0.00000000E+00  3.14159400E+00  0.00000000E+00  0.00000000E+00
  0.00000000E+00  0.00000000E+00  3.14159400E+00  3.14159400E+00  3.14159400E+00
%FLAG SCEE_SCALE_FACTOR                                                         
%FORMAT(5E16.8)                                                                 
  1.20000000E+00  1.20000000E+00  1.20000000E+00  1.20000000E+00  1.20000000E+00
  1.20000000E+00  1.20000000E+00  1.20000000E+00  1.20000000E+00  1.20000000E+00
  1.20000000E+00  1.20000000E+00  1.20000000E+00  1.20000000E+00  1.20000000E+00
  1.20000000E+00  1.20000000E+00  1.20000000E+00  1.20000000E+00  1.20000000E+00
  1.20000000E+00  1.20000000E+00  1.20000000E+00  1.20000000E+00  1.20000000E+00
  1.20000000E+00  1.20000000E+00  1.20000000E+00  1.20000000E+00  1.20000000E+00
  1.20000000E+00  1.20000000E+00  0.00000000E+00  0.00000000E+00  0.00000000E+00
%FLAG SCNB_SCALE_FACTOR                                                         
%FORMAT(5E16.8)                                                                 
  2.00000000E+00  2.00000000E+00  2.00000000E+00  2.00000000E+00  2.00000000E+00
  2.00000000E+00  2.00000000E+00  2.00000000E+00  2.00000000E+00  2.00000000E+00
  2.00000000E+00  2.00000000E+00  2.00000000E+00  2.00000000E+00  2.00000000E+00
  2.00000000E+00  2.00000000E+00  2.00000000E+00  2.00000000E+00  2.00000000E+00
  2.00000000E+00  2.00000000E+00  2.00000000E+00  2.00000000E+00  2.00000000E+00
  2.00000000E+00  2.00000000E+00  2.00000000E+00  2.00000000E+00  2.00000000E+00
  2.00000000E+00  2.00000000E+00  0.00000000E+00  0.00000000E+00  0.00000000E+00
%FLAG SOLTY                                                                     
%FORMAT(5E16.8)                                                                 
  0.00000000E+00  0.00000000E+00  0.00000000E+00  0.00000000E+00  0.00000000E+00
  0.00000000E+00  0.00000000E+00  0.00000000E+00  0.00000000E+00  0.00000000E+00
  0.00000000E+00  0.00000000E+00
%FLAG LENNARD_JONES_ACOEF                                                       
%FORMAT(5E16.8)                                                                 
  9.44293233E+05  2.12601181E+03  1.39982777E-01  9.95480466E+05  2.56678134E+03
  1.04308023E+06  6.20665997E+04  5.94667300E+01  6.78771368E+04  3.25969625E+03
  8.82619071E+05  2.27577561E+03  9.24822270E+05  6.01816484E+04  8.19971662E+05
  6.06829342E+05  1.02595236E+03  6.47841731E+05  3.69471530E+04  5.74393458E+05
  3.79876399E+05  8.96776989E+04  1.07193646E+02  9.71708117E+04  4.98586848E+03
  8.61541883E+04  5.44261042E+04  7.51607703E+03  7.44975864E+05  1.40467023E+03
  7.91544157E+05  4.66922514E+04  7.01803794E+05  4.71003287E+05  6.82786631E+04
  5.81803229E+05  0.00000000E+00  0.00000000E+00  0.00000000E+00  0.00000000E+00
  0.00000000E+00  0.00000000E+00  0.00000000E+00  0.00000000E+00  0.00000000E+00
  7.91627154E+04  8.90987508E+01  8.59947003E+04  4.33325458E+03  7.62451550E+04
  4.77908183E+04  6.55825601E+03  6.00750218E+04  0.00000000E+00  5.71629601E+03
%FLAG LENNARD_JONES_BCOEF                                                       
%FORMAT(5E16.8)                                                                 
  8.01323529E+02  2.09604198E+01  9.37598976E-02  7.36907417E+02  2.06278363E+01
  6.75612247E+02  1.13252061E+02  1.93248820E+00  1.06076943E+02  1.43076527E+01
  6.53361429E+02  1.82891803E+01  5.99015525E+02  9.40505980E+01  5.31102864E+02
  6.77220874E+02  1.53505284E+01  6.26720080E+02  9.21192136E+01  5.55666448E+02
  5.64885984E+02  1.36131731E+02  2.59456373E+00  1.26919150E+02  1.76949863E+01
  1.12529845E+02  1.11805549E+02  2.17257828E+01  7.50714425E+02  1.79702257E+01
  6.93079947E+02  1.03606917E+02  6.14502845E+02  6.29300710E+02  1.25287818E+02
  6.99746810E+02  0.00000000E+00  0.00000000E+00  0.00000000E+00  0.00000000E+00
  0.00000000E+00  0.00000000E+00  0.00000000E+00  0.00000000E+00  0.00000000E+00
  1.26451907E+02  2.33864085E+00  1.18043746E+02  1.63092814E+01  1.04660679E+02
  1.03580945E+02  2.00642027E+01  1.16187983E+02  0.00000000E+00  1.85196588E+01
%FLAG BONDS_INC_HYDROGEN                                                        
%FORMAT(10I8)                                                                   
      60      63       1      60      66       1      48      51       1      48
      54       1      48      57       1      27      30       6      27      33
       6      27      36       6      18      21       6      18      24       6
       6       9       8       0       3      11     123     126       6     123
     129       6     123     132       6     111     114       6     111     117
       6     111     120       6     105     108       6      96      99       6
      96     102       6      90      93       1      78      81       1      78
      84       1      78      87       1     237     240       6     237     243
       6     237     246       6     225     228       6     225     231       6
     225     234       6     219     222       6     210     213       6     210
     216       6     204     207       1     192     195       1     192     198
       1     192     201       1     171     174       6     171     177       6
     171     180       6     159     162       6     159     165       6     159
     168       6     153     156       6     141     144       8     135     138
      11     261     264       6     261     267       6     261     270       6
     255     258       8     249     252      11     297     300       6     297
     303       6     297     306       6     291     294       8     285     288
      11     429     432       6     429     435       6     429     438       6
     417     420       6     417     423       6     417     426       6     411
     414       6     402     405       6     402     408       6     396     399
       1     384     387       1     384     390       1     384     393       1
     363     366       6     363     369       6     363     372       6     351
     354       6     351     357       6     351     360       6     345     348
       6     336     339       6     336     342       6     330     333       1
     318     321       1     318     324       1     318     327       1     576
     579       6     576     582       6     576     585       6     564     567
       6     564     570       6     564     573       6     558     561       6
     552     555       1     540     543       1     540     546       1     540
     549       1     519     522       6     519     525       6     519     528
       6     513     516       6     504     507       6     504     510       6
     492     495       6     492     498       6     492     501       6     486
     489      13     480     483      13     474     477      16     468     471
       1     462     465       1     450     453       1     450     456       1
     450     459       1     591     588       1     594     591       1     597
     591       1     603     600      16     609     606       1     612     609
       1     615     609       1     621     618      16     627     624       1
     630     627       1     633     627       1     639     636      16     645
     642       1     648     645       1     651     645       1     657     654
      16     663     660       1     666     663       1     669     663       1
     675     672      16     681     678       1     684     681       1     687
     681       1     693     690      16     699     696       1     702     699
       1     705     699       1     711     708      16     717     714       1
     720     717       1     723     717       1     729     726      16     735
     732       1     738     735       1     741     735       1     747     744
      16     753     750       1     756     753       1     759     753       1
     765     762      16     771     768       1     774     771       1     777
     771       1     783     780      16     789     786       1     792     789
       1     795     789       1     801     798      16     807     804       1
     810     807       1     813     807       1     819     816      16     825
     822       1     828     825       1     831     825       1     837     834
      16     843     840       1     846     843       1     849     843       1
     855     852      16     861     858       1     864     861       1     867
     861       1     873     870      16     879     876       1     882     879
       1     885     879       1     891     888      16     897     894       1
     900     897       1     903     897       1     909     906      16     915
     912       1     918     915       1     921     915       1     927     924
      16     933     930       1     936     933       1     939     933       1
     945     942      16     951     948       1     954     951       1     957
     951       1     963     960      16     969     966       1     972     969
       1     975     969       1     981     978      16     987     984       1
     990     987       1     993     987       1     999     996      16    1005
    1002       1    1008    1005       1    1011    1005       1    1017    1014
      16    1023    1020       1    1026    1023       1    1029    1023       1
    1035    1032      16    1041    1038       1    1044    1041       1    1047
    1041       1    1053    1050      16    1059    1056       1    1062    1059
       1    1065    1059       1    1071    1068      16    1077    1074       1
    1080    1077       1    1083    1077       1    1089    1086      16    1095
    1092       1    1098    1095       1    1101    1095       1    1107    1104
      16    1113    1110       1    1116    1113       1    1119    1113       1
    1125    1122      16    1131    1128       1    1134    1131       1    1137
    1131       1    1143    1140      16    1149    1146       1    1152    1149
       1    1155    1149       1    1161    1158      16    1167    1164       1
    1170    1167       1    1173    1167       1    1179    1176      16    1185
    1182       1    1188    1185       1    1191    1185       1    1197    1194
      16    1203    1200       1    1206    1203       1    1209    1203       1
    1215    1212      16    1221    1218       1    1224    1221       1    1227
    1221       1    1233    1230      16    1239    1236       1    1242    1239
       1    1245    1239       1    1251    1248      16    1257    1254       1
    1260    1257       1    1263    1257       1    1269    1266      16    1275
    1272       1    1278    1275       1    1281    1275       1    1287    1284
      16    1293    1290       1    1296    1293       1    1299    1293       1
    1305    1302      16    1311    1308       1    1314    1311       1    1317
    1311       1    1323    1320      16    1329    1326       1    1332    1329
       1    1335    1329       1    1341    1338      16    1347    1344       1
    1350    1347       1    1353    1347       1    1359    1356      16    1365
    1362       1    1368    1365       1    1371    1365       1    1377    1374
      16    1383    1380       1    1386    1383       1    1389    1383       1
    1395    1392      16    1401    1398       1    1404    1401       1    1407
    1401       1    1413    1410      16    1419    1416       1    1422    1419
       1    1425    1419       1    1431    1428      16    1437    1434       1
    1440    1437       1    1443    1437       1    1449    1446      16    1455
    1452       1    1458    1455       1    1461    1455       1    1467    1464
      16    1473    1470       1    1476    1473       1    1479    1473       1
    1485    1482      16    1491    1488       1    1494    1491       1    1497
    1491       1    1503    1500      16    1509    1506       1    1512    1509
       1    1515    1509       1    1521    1518      16    1527    1524       1
    1530    1527       1    1533    1527       1    1539    1536      16    1545
    1542       1    1548    1545       1    1551    1545       1    1557    1554
      16    1563    1560       1    1566    1563       1    1569    1563       1
    1575    1572      16    1581    1578       1    1584    1581       1    1587
    1581       1    1593    1590      16    1599    1596       1    1602    1599
       1    1605    1599       1    1611    1608      16    1617    1614       1
    1620    1617       1    1623    1617       1    1629    1626      16    1635
    1632       1    1638    1635       1    1641    1635       1    1647    1644
      16    1653    1650       1    1656    1653       1    1659    1653       1
    1665    1662      16    1671    1668       1    1674    1671       1    1677
    1671       1    1683    1680      16    1689    1686       1    1692    1689
       1    1695    1689       1    1701    1698      16    1707    1704       1
    1710    1707       1    1713    1707       1    1719    1716      16    1725
    1722       1    1728    1725       1    1731    1725       1    1737    1734
      16    1743    1740       1    1746    1743       1    1749    1743       1
    1755    1752      16    1761    1758       1    1764    1761       1    1767
    1761       1    1773    1770      16    1779    1776       1    1782    1779
       1    1785    1779       1    1791    1788      16    1797    1794       1
    1800    1797       1    1803    1797       1    1809    1806      16    1815
    1812       1    1818    1815       1    1821    1815       1    1827    1824
      16    1833    1830       1    1836    1833       1    1839    1833       1
    1845    1842      16    1851    1848       1    1854    1851       1    1857
    1851       1    1863    1860      16    1869    1866       1    1872    1869
       1    1875    1869       1    1881    1878      16    1887    1884       1
    1890    1887       1    1893    1887       1    1899    1896      16    1905
    1902       1    1908    1905       1    1911    1905       1    1917    1914
      16    1923    1920       1    1926    1923       1    1929    1923       1
    1935    1932      16    1941    1938       1    1944    1941       1    1947
    1941       1    1953    1950      16    1959    1956       1    1962    1959
       1    1965    1959       1    1971    1968      16    1977    1974       1
    1980    1977       1    1983    1977       1    1989    1986      16    1995
    1992       1    1998    1995       1    2001    1995       1    2007    2004
      16    2013    2010       1    2016    2013       1    2019    2013       1
    2025    2022      16    2031    2028       1    2034    2031       1    2037
    2031       1    2043    2040      16    2049    2046       1    2052    2049
       1    2055    2049       1    2061    2058      16    2067    2064       1
    2070    2067       1    2073    2067       1    2079    2076      16    2085
    2082       1    2088    2085       1    2091    2085       1    2097    2094
      16    2103    2100       1    2106    2103       1    2109    2103       1
    2115    2112      16    2121    2118       1    2124    2121       1    2127
    2121       1    2133    2130      16    2139    2136       1    2142    2139
       1    2145    2139       1    2151    2148      16    2157    2154       1
    2160    2157       1    2163    2157       1    2169    2166      16    2175
    2172       1    2178    2175       1    2181    2175       1    2187    2184
      16    2193    2190       1    2196    2193       1    2199    2193       1
    2205    2202      16    2211    2208       1    2214    2211       1    2217
    2211       1    2223    2220      16    2229    2226       1    2232    2229
       1    2235    2229       1    2241    2238      16    2247    2244       1
    2250    2247       1    2253    2247       1    2259    2256      16    2265
    2262       1    2268    2265       1    2271    2265       1    2277    2274
      16    2283    2280       1    2286    2283       1    2289    2283       1
    2295    2292      16    2301    2298       1    2304    2301       1    2307
    2301       1    2313    2310      16    2319    2316       1    2322    2319
       1    2325    2319       1    2331    2328      16    2337    2334       1
    2340    2337       1    2343    2337       1    2349    2346      16    2355
    2352       1    2358    2355       1    2361    2355       1    2367    2364
      16    2373    2370       1    2376    2373       1    2379    2373       1
    2385    2382      16    2391    2388       1    2394    2391       1    2397
    2391       1    2403    2400      16    2409    2406       1    2412    2409
       1    2415    2409       1    2421    2418      16    2427    2424       1
    2430    2427       1    2433    2427       1    2439    2436      16    2445
    2442       1    2448    2445       1    2451    2445       1    2457    2454
      16    2463    2460       1    2466    2463       1    2469    2463       1
    2475    2472      16    2481    2478       1    2484    2481       1    2487
    2481       1    2493    2490      16    2499    2496       1    2502    2499
       1    2505    2499       1    2511    2508      16    2517    2514       1
    2520    2517       1    2523    2517       1    2529    2526      16    2535
    2532       1    2538    2535       1    2541    2535       1    2547    2544
      16    2553    2550       1    2556    2553       1    2559    2553       1
    2565    2562      16    2571    2568       1    2574    2571       1    2577
    2571       1    2583    2580      16    2589    2586       1    2592    2589
       1    2595    2589       1    2601    2598      16    2607    2604       1
    2610    2607       1    2613    2607       1    2619    2616      16    2625
    2622       1    2628    2625       1    2631    2625       1    2637    2634
      16    2643    2640       1    2646    2643       1    2649    2643       1
    2655    2652      16    2661    2658       1    2664    2661       1    2667
    2661       1    2673    2670      16    2679    2676       1    2682    2679
       1    2685    2679       1    2691    2688      16    2697    2694       1
    2700    2697       1    2703    2697       1    2709    2706      16    2715
    2712       1    2718    2715       1    2721    2715       1    2727    2724
      16    2733    2730       1    2736    2733       1    2739    2733       1
    2745    2742      16    2751    2748       1    2754    2751       1    2757
    2751       1    2763    2760      16    2769    2766       1    2772    2769
       1    2775    2769       1    2781    2778      16    2787    2784       1
    2790    2787       1    2793    2787       1    2799    2796      16    2805
    2802       1    2808    2805       1    2811    2805       1    2817    2814
      16    2823    2820       1    2826    2823       1    2829    2823       1
    2835    2832      16    2841    2838       1    2844    2841       1    2847
    2841       1    2853    2850      16    2859    2856       1    2862    2859
       1    2865    2859       1    2871    2868      16    2877    2874       1
    2880    2877       1    2883    2877       1    2889    2886      16    2895
    2892       1    2898    2895       1    2901    2895       1    2907    2904
      16    2913    2910       1    2916    2913       1    2919    2913       1
    2925    2922      16    2931    2928       1    2934    2931       1    2937
    2931       1    2943    2940      16    2949    2946       1    2952    2949
       1    2955    2949       1    2961    2958      16    2967    2964       1
    2970    2967       1    2973    2967       1    2979    2976      16    2985
    2982       1    2988    2985       1    2991    2985       1    2997    2994
      16    3003    3000       1    3006    3003       1    3009    3003       1
    3015    3012      16    3021    3018       1    3024    3021       1    3027
    3021       1    3033    3030      16    3039    3036       1    3042    3039
       1    3045    3039       1    3051    3048      16    3057    3054       1
    3060    3057       1    3063    3057       1    3069    3066      16    3075
    3072       1    3078    3075       1    3081    3075       1    3087    3084
      16    3093    3090       1    3096    3093       1    3099    3093       1
    3105    3102      16    3111    3108       1    3114    3111       1    3117
    3111       1    3123    3120      16    3129    3126       1    3132    3129
       1    3135    3129       1    3141    3138      16    3147    3144       1
    3150    3147       1    3153    3147       1    3159    3156      16    3165
    3162       1    3168    3165       1    3171    3165       1    3177    3174
      16    3183    3180       1    3186    3183       1    3189    3183       1
    3195    3192      16    3201    3198       1    3204    3201       1    3207
    3201       1    3213    3210      16    3219    3216       1    3222    3219
       1    3225    3219       1    3231    3228      16    3237    3234       1
    3240    3237       1    3243    3237       1    3249    3246      16    3255
    3252       1    3258    3255       1    3261    3255       1    3267    3264
      16    3273    3270       1    3276    3273       1    3279    3273       1
    3285    3282      16    3291    3288       1    3294    3291       1    3297
    3291       1    3303    3300      16    3309    3306       1    3312    3309
       1    3315    3309       1    3321    3318      16    3327    3324       1
    3330    3327       1    3333    3327       1    3339    3336      16    3345
    3342       1    3348    3345       1    3351    3345       1    3357    3354
      16    3363    3360       1    3366    3363       1    3369    3363       1
    3375    3372      16    3381    3378       1    3384    3381       1    3387
    3381       1    3393    3390      16    3399    3396       1    3402    3399
       1    3405    3399       1    3411    3408      16    3417    3414       1
    3420    3417       1    3423    3417       1    3429    3426      16    3435
    3432       1    3438    3435       1    3441    3435       1    3447    3444
      16    3453    3450       1    3456    3453       1    3459    3453       1
    3465    3462      16    3471    3468       1    3474    3471       1    3477
    3471       1    3483    3480      16    3489    3486       1    3492    3489
       1    3495    3489       1    3501    3498      16    3507    3504       1
    3510    3507       1    3513    3507       1    3519    3516      16    3525
    3522       1    3528    3525       1    3531    3525       1    3537    3534
      16    3543    3540       1    3546    3543       1    3549    3543       1
    3555    3552      16    3561    3558       1    3564    3561       1    3567
    3561       1    3573    3570      16    3579    3576       1    3582    3579
       1    3585    3579       1    3591    3588      16    3597    3594       1
    3600    3597       1    3603    3597       1    3609    3606      16    3615
    3612       1    3618    3615       1    3621    3615       1    3627    3624
      16    3633    3630       1    3636    3633       1    3639    3633       1
    3645    3642      16    3651    3648       1    3654    3651       1    3657
    3651       1    3663    3660      16    3669    3666       1    3672    3669
       1    3675    3669       1    3681    3678      16    3687    3684       1
    3690    3687       1    3693    3687       1    3699    3696      16    3705
    3702       1    3708    3705       1    3711    3705       1    3717    3714
      16    3723    3720       1    3726    3723       1    3729    3723       1
    3735    3732      16    3741    3738       1    3744    3741       1    3747
    3741       1    3753    3750      16    3759    3756       1    3762    3759
       1    3765    3759       1    3771    3768      16    3777    3774       1
    3780    3777       1    3783    3777       1    3789    3786      16    3795
    3792       1    3798    3795       1    3801    3795       1    3807    3804
      16    3813    3810       1    3816    3813       1    3819    3813       1
    3825    3822      16    3831    3828       1    3834    3831       1    3837
    3831       1    3843    3840      16    3849    3846       1    3852    3849
       1    3855    3849       1    3861    3858      16    3867    3864       1
    3870    3867       1    3873    3867       1    3879    3876      16    3885
    3882       1    3888    3885       1    3891    3885       1    3897    3894
      16    3903    3900       1    3906    3903       1    3909    3903       1
    3915    3912      16    3921    3918       1    3924    3921       1    3927
    3921       1    3933    3930      16    3939    3936       1    3942    3939
       1    3945    3939       1    3951    3948      16    3957    3954       1
    3960    3957       1    3963    3957       1    3969    3966      16    3975
    3972       1    3978    3975       1    3981    3975       1    3987    3984
      16    3993    3990       1    3996    3993       1    3999    3993       1
    4005    4002      16    4011    4008       1    4014    4011       1    4017
    4011       1    4023    4020      16    4029    4026       1    4032    4029
       1    4035    4029       1    4041    4038      16    4047    4044       1
    4050    4047       1    4053    4047       1    4059    4056      16    4065
    4062       1    4068    4065       1    4071    4065       1    4077    4074
      16    4083    4080       1    4086    4083       1    4089    4083       1
    4095    4092      16    4101    4098       1    4104    4101       1    4107
    4101       1    4113    4110      16    4119    4116       1    4122    4119
       1    4125    4119       1    4131    4128      16    4137    4134       1
    4140    4137       1    4143    4137       1    4149    4146      16    4155
    4152       1    4158    4155       1    4161    4155       1    4167    4164
      16    4173    4170       1    4176    4173       1    4179    4173       1
    4185    4182      16    4191    4188       1    4194    4191       1    4197
    4191       1    4203    4200      16    4209    4206       1    4212    4209
       1    4215    4209       1    4221    4218      16    4227    4224       1
    4230    4227       1    4233    4227       1    4239    4236      16    4245
    4242       1    4248    4245       1    4251    4245       1    4257    4254
      16    4263    4260       1    4266    4263       1    4269    4263       1
    4275    4272      16    4281    4278       1    4284    4281       1    4287
    4281       1    4293    4290      16    4299    4296       1    4302    4299
       1    4305    4299       1    4311    4308      16    4317    4314       1
    4320    4317       1    4323    4317       1    4329    4326      16    4335
    4332       1    4338    4335       1    4341    4335       1    4347    4344
      16    4353    4350       1    4356    4353       1    4359    4353       1
    4365    4362      16    4371    4368       1    4374    4371       1    4377
    4371       1    4383    4380      16    4389    4386       1    4392    4389
       1    4395    4389       1    4401    4398      16    4407    4404       1
    4410    4407       1    4413    4407       1    4419    4416      16    4425
    4422       1    4428    4425       1    4431    4425       1    4437    4434
      16    4443    4440       1    4446    4443       1    4449    4443       1
    4455    4452      16    4461    4458       1    4464    4461       1    4467
    4461       1    4473    4470      16    4479    4476       1    4482    4479
       1    4485    4479       1    4491    4488      16    4497    4494       1
    4500    4497       1    4503    4497       1    4509    4506      16    4515
    4512       1    4518    4515       1    4521    4515       1    4527    4524
      16    4533    4530       1    4536    4533       1    4539    4533       1
    4545    4542      16    4551    4548       1    4554    4551       1    4557
    4551       1    4563    4560      16    4569    4566       1    4572    4569
       1    4575    4569       1    4581    4578      16    4587    4584       1
    4590    4587       1    4593    4587       1    4599    4596      16    4605
    4602       1    4608    4605       1    4611    4605       1    4617    4614
      16    4623    4620       1    4626    4623       1    4629    4623       1
    4635    4632      16    4641    4638       1    4644    4641       1    4647
    4641       1    4653    4650      16    4659    4656       1    4662    4659
       1    4665    4659       1    4671    4668      16    4677    4674       1
    4680    4677       1    4683    4677       1    4689    4686      16    4695
    4692       1    4698    4695       1    4701    4695       1    4707    4704
      16    4713    4710       1    4716    4713       1    4719    4713       1
    4725    4722      16    4731    4728       1    4734    4731       1    4737
    4731       1    4743    4740      16    4749    4746       1    4752    4749
       1    4755    4749       1    4761    4758      16    4767    4764       1
    4770    4767       1    4773    4767       1    4779    4776      16    4785
    4782       1    4788    4785       1    4791    4785       1    4797    4794
      16    4803    4800       1    4806    4803       1    4809    4803       1
    4815    4812      16    4821    4818       1    4824    4821       1    4827
    4821       1    4833    4830      16    4839    4836       1    4842    4839
       1    4845    4839       1    4851    4848      16    4857    4854       1
    4860    4857       1    4863    4857       1    4869    4866      16    4875
    4872       1    4878    4875       1    4881    4875       1    4887    4884
      16    4893    4890       1    4896    4893       1    4899    4893       1
    4905    4902      16    4911    4908       1    4914    4911       1    4917
    4911       1    4923    4920      16    4929    4926       1    4932    4929
       1    4935    4929       1    4941    4938      16    4947    4944       1
    4950    4947       1    4953    4947       1    4959    4956      16    4965
    4962       1    4968    4965       1    4971    4965       1    4977    4974
      16    4983    4980       1    4986    4983       1    4989    4983       1
    4995    4992      16    5001    4998       1    5004    5001       1    5007
    5001       1    5013    5010      16    5019    5016       1    5022    5019
       1    5025    5019       1    5031    5028      16    5037    5034       1
    5040    5037       1    5043    5037       1    5049    5046      16    5055
    5052       1    5058    5055       1    5061    5055       1    5067    5064
      16    5073    5070       1    5076    5073       1    5079    5073       1
    5085    5082      16    5091    5088       1    5094    5091       1    5097
    5091       1    5103    5100      16    5109    5106       1    5112    5109
       1    5115    5109       1    5121    5118      16    5127    5124       1
    5130    5127       1    5133    5127       1    5139    5136      16    5145
    5142       1    5148    5145       1    5151    5145       1    5157    5154
      16    5163    5160       1    5166    5163       1    5169    5163       1
    5175    5172      16    5181    5178       1    5184    5181       1    5187
    5181       1    5193    5190      16    5199    5196       1    5202    5199
       1    5205    5199       1    5211    5208      16    5217    5214       1
    5220    5217       1    5223    5217       1    5229    5226      16    5235
    5232       1    5238    5235       1    5241    5235       1    5247    5244
      16    5253    5250       1    5256    5253       1    5259    5253       1
    5265    5262      16    5271    5268       1    5274    5271       1    5277
    5271       1    5283    5280      16    5289    5286       1    5292    5289
       1    5295    5289       1    5301    5298      16    5307    5304       1
    5310    5307       1    5313    5307       1    5319    5316      16    5325
    5322       1    5328    5325       1    5331    5325       1    5337    5334
      16    5343    5340       1    5346    5343       1    5349    5343       1
    5355    5352      16    5361    5358       1    5364    5361       1    5367
    5361       1    5373    5370      16    5379    5376       1    5382    5379
       1    5385    5379       1    5391    5388      16    5397    5394       1
    5400    5397       1    5403    5397       1    5409    5406      16    5415
    5412       1    5418    5415       1    5421    5415       1    5427    5424
      16    5433    5430       1    5436    5433       1    5439    5433       1
    5445    5442      16    5451    5448       1    5454    5451       1    5457
    5451       1    5463    5460      16    5469    5466       1    5472    5469
       1    5475    5469       1    5481    5478      16    5487    5484       1
    5490    5487       1    5493    5487       1    5499    5496      16    5505
    5502       1    5508    5505       1    5511    5505       1    5517    5514
      16    5523    5520       1    5526    5523       1    5529    5523       1
    5535    5532      16    5541    5538       1    5544    5541       1    5547
    5541       1    5553    5550      16    5559    5556       1    5562    5559
       1    5565    5559       1    5571    5568      16    5577    5574       1
    5580    5577       1    5583    5577       1    5589    5586      16    5595
    5592       1    5598    5595       1    5601    5595       1    5607    5604
      16    5613    5610       1    5616    5613       1    5619    5613       1
    5625    5622      16    5631    5628       1    5634    5631       1    5637
    5631       1    5643    5640      16    5649    5646       1    5652    5649
       1    5655    5649       1    5661    5658      16    5667    5664       1
    5670    5667       1    5673    5667       1    5679    5676      16    5685
    5682       1    5688    5685       1    5691    5685       1    5697    5694
      16    5703    5700       1    5706    5703       1    5709    5703       1
    5715    5712      16    5721    5718       1    5724    5721       1    5727
    5721       1    5733    5730      16    5739    5736       1    5742    5739
       1    5745    5739       1    5751    5748      16    5757    5754       1
    5760    5757       1    5763    5757       1    5769    5766      16    5775
    5772       1    5778    5775       1    5781    5775       1    5787    5784
      16    5793    5790       1    5796    5793       1    5799    5793       1
    5805    5802      16    5811    5808       1    5814    5811       1    5817
    5811       1    5823    5820      16    5829    5826       1    5832    5829
       1    5835    5829       1    5841    5838      16    5847    5844       1
    5850    5847       1    5853    5847       1    5859    5856      16    5865
    5862       1    5868    5865       1    5871    5865       1    5877    5874
      16    5883    5880       1    5886    5883       1    5889    5883       1
    5895    5892      16    5901    5898       1    5904    5901       1    5907
    5901       1    5913    5910      16    5919    5916       1    5922    5919
       1    5925    5919       1    5931    5928      16    5937    5934       1
    5940    5937       1    5943    5937       1    5949    5946      16    5955
    5952       1    5958    5955       1    5961    5955       1    5967    5964
      16    5973    5970       1    5976    5973       1    5979    5973       1
    5985    5982      16    5991    5988       1    5994    5991       1    5997
    5991       1    6003    6000      16    6009    6006       1    6012    6009
       1    6015    6009       1    6021    6018      16    6027    6024       1
    6030    6027       1    6033    6027       1    6039    6036      16    6045
    6042       1    6048    6045       1    6051    6045       1    6057    6054
      16    6063    6060       1    6066    6063       1    6069    6063       1
    6075    6072      16    6081    6078       1    6084    6081       1    6087
    6081       1    6093    6090      16    6099    6096       1    6102    6099
       1    6105    6099       1    6111    6108      16    6117    6114       1
    6120    6117       1    6123    6117       1    6129    6126      16    6135
    6132       1    6138    6135       1    6141    6135       1    6147    6144
      16    6153    6150       1    6156    6153       1    6159    6153       1
    6165    6162      16    6171    6168       1    6174    6171       1    6177
    6171       1    6183    6180      16    6189    6186       1    6192    6189
       1    6195    6189       1    6201    6198      16    6207    6204       1
    6210    6207       1    6213    6207       1    6219    6216      16    6225
    6222       1    6228    6225       1    6231    6225       1    6237    6234
      16    6243    6240       1    6246    6243       1    6249    6243       1
    6255    6252      16    6261    6258       1    6264    6261       1    6267
    6261       1    6273    6270      16    6279    6276       1    6282    6279
       1    6285    6279       1    6291    6288      16    6297    6294       1
    6300    6297       1    6303    6297       1    6309    6306      16    6315
    6312       1    6318    6315       1    6321    6315       1    6327    6324
      16    6333    6330       1    6336    6333       1    6339    6333       1
    6345    6342      16    6351    6348       1    6354    6351       1    6357
    6351       1    6363    6360      16    6369    6366       1    6372    6369
       1    6375    6369       1    6381    6378      16    6387    6384       1
    6390    6387       1    6393    6387       1    6399    6396      16    6405
    6402       1    6408    6405       1    6411    6405       1    6417    6414
      16    6423    6420       1    6426    6423       1    6429    6423       1
    6435    6432      16    6441    6438       1    6444    6441       1    6447
    6441       1    6453    6450      16    6459    6456       1    6462    6459
       1    6465    6459       1    6471    6468      16    6477    6474       1
    6480    6477       1    6483    6477       1    6489    6486      16    6495
    6492       1    6498    6495       1    6501    6495       1    6507    6504
      16    6513    6510       1    6516    6513       1    6519    6513       1
    6525    6522      16    6531    6528       1    6534    6531       1    6537
    6531       1    6543    6540      16    6549    6546       1    6552    6549
       1    6555    6549       1    6561    6558      16    6567    6564       1
    6570    6567       1    6573    6567       1    6579    6576      16    6585
    6582       1    6588    6585       1    6591    6585       1    6597    6594
      16    6603    6600       1    6606    6603       1    6609    6603       1
    6615    6612      16    6621    6618       1    6624    6621       1    6627
    6621       1    6633    6630      16    6639    6636       1    6642    6639
       1    6645    6639       1    6651    6648      16    6657    6654       1
    6660    6657       1    6663    6657       1    6669    6666      16    6675
    6672       1    6678    6675       1    6681    6675       1    6687    6684
      16    6693    6690       1    6696    6693       1    6699    6693       1
    6705    6702      16    6711    6708       1    6714    6711       1    6717
    6711       1    6723    6720      16    6729    6726       1    6732    6729
       1    6735    6729       1    6741    6738      16    6747    6744       1
    6750    6747       1    6753    6747       1    6759    6756      16    6765
    6762       1    6768    6765       1    6771    6765       1    6777    6774
      16    6783    6780       1    6786    6783       1    6789    6783       1
    6795    6792      16    6801    6798       1    6804    6801       1    6807
    6801       1    6813    6810      16    6819    6816       1    6822    6819
       1    6825    6819       1    6831    6828      16    6837    6834       1
    6840    6837       1    6843    6837       1    6849    6846      16    6855
    6852       1    6858    6855       1    6861    6855       1    6867    6864
      16    6873    6870       1    6876    6873       1    6879    6873       1
    6885    6882      16    6891    6888       1    6894    6891       1    6897
    6891       1    6903    6900      16    6909    6906       1    6912    6909
       1    6915    6909       1    6921    6918      16    6927    6924       1
    6930    6927       1    6933    6927       1    6939    6936      16    6945
    6942       1    6948    6945       1    6951    6945       1    6957    6954
      16    6963    6960       1    6966    6963       1    6969    6963       1
    6975    6972      16    6981    6978       1    6984    6981       1    6987
    6981       1    6993    6990      16    6999    6996       1    7002    6999
       1    7005    6999       1    7011    7008      16    7017    7014       1
    7020    7017       1    7023    7017       1    7029    7026      16    7035
    7032       1    7038    7035       1    7041    7035       1    7047    7044
      16    7053    7050       1    7056    7053       1    7059    7053       1
    7065    7062      16    7071    7068       1    7074    7071       1    7077
    7071       1    7083    7080      16    7089    7086       1    7092    7089
       1    7095    7089       1    7101    7098      16    7107    7104       1
    7110    7107       1    7113    7107       1    7119    7116      16    7125
    7122       1    7128    7125       1    7131    7125       1    7137    7134
      16    7143    7140       1    7146    7143       1    7149    7143       1
    7155    7152      16    7161    7158       1    7164    7161       1    7167
    7161       1    7173    7170      16    7179    7176       1    7182    7179
       1    7185    7179       1    7191    7188      16    7197    7194       1
    7200    7197       1    7203    7197       1    7209    7206      16    7215
    7212       1    7218    7215       1    7221    7215       1    7227    7224
      16    7233    7230       1    7236    7233       1    7239    7233       1
    7245    7242      16    7251    7248       1    7254    7251       1    7257
    7251       1    7263    7260      16    7269    7266       1    7272    7269
       1    7275    7269       1    7281    7278      16    7287    7284       1
    7290    7287       1    7293    7287       1    7299    7296      16    7305
    7302       1    7308    7305       1    7311    7305       1    7317    7314
      16    7323    7320       1    7326    7323       1    7329    7323       1
    7335    7332      16    7341    7338       1    7344    7341       1    7347
    7341       1    7353    7350      16    7359    7356       1    7362    7359
       1    7365    7359       1    7371    7368      16    7377    7374       1
    7380    7377       1    7383    7377       1    7389    7386      16    7395
    7392       1    7398    7395       1    7401    7395       1    7407    7404
      16    7413    7410       1    7416    7413       1    7419    7413       1
    7425    7422      16    7431    7428       1    7434    7431       1    7437
    7431       1    7443    7440      16    7449    7446       1    7452    7449
       1    7455    7449       1    7461    7458      16    7467    7464       1
    7470    7467       1    7473    7467       1    7479    7476      16    7485
    7482       1    7488    7485       1    7491    7485       1    7497    7494
      16    7503    7500       1    7506    7503       1    7509    7503       1
    7515    7512      16    7521    7518       1    7524    7521       1    7527
    7521       1    7533    7530      16    7539    7536       1    7542    7539
       1    7545    7539       1    7551    7548      16    7557    7554       1
    7560    7557       1    7563    7557       1    7569    7566      16    7575
    7572       1    7578    7575       1    7581    7575       1    7587    7584
      16    7593    7590       1    7596    7593       1    7599    7593       1
    7605    7602      16    7611    7608       1    7614    7611       1    7617
    7611       1    7623    7620      16    7629    7626       1    7632    7629
       1    7635    7629       1    7641    7638      16    7647    7644       1
    7650    7647       1    7653    7647       1    7659    7656      16    7665
    7662       1    7668    7665       1    7671    7665       1    7677    7674
      16    7683    7680       1    7686    7683       1    7689    7683       1
    7695    7692      16    7701    7698       1    7704    7701       1    7707
    7701       1    7713    7710      16    7719    7716       1    7722    7719
       1    7725    7719       1    7731    7728      16    7737    7734       1
    7740    7737       1    7743    7737       1    7749    7746      16    7755
    7752       1    7758    7755       1    7761    7755       1    7767    7764
      16    7773    7770       1    7776    7773       1    7779    7773       1
    7785    7782      16    7791    7788       1    7794    7791       1    7797
    7791       1    7803    7800      16    7809    7806       1    7812    7809
       1    7815    7809       1    7821    7818      16    7827    7824       1
    7830    7827       1    7833    7827       1    7839    7836      16    7845
    7842       1    7848    7845       1    7851    7845       1    7857    7854
      16    7863    7860       1    7866    7863       1    7869    7863       1
    7875    7872      16    7881    7878       1    7884    7881       1    7887
    7881       1    7893    7890      16    7899    7896       1    7902    7899
       1    7905    7899       1    7911    7908      16    7917    7914       1
    7920    7917       1    7923    7917       1    7929    7926      16    7935
    7932       1    7938    7935       1    7941    7935       1    7947    7944
      16    7953    7950       1    7956    7953       1    7959    7953       1
    7965    7962      16    7971    7968       1    7974    7971       1    7977
    7971       1    7983    7980      16    7989    7986       1    7992    7989
       1    7995    7989       1    8001    7998      16    8007    8004       1
    8010    8007       1    8013    8007       1    8019    8016      16    8025
    8022       1    8028    8025       1    8031    8025       1    8037    8034
      16    8043    8040       1    8046    8043       1    8049    8043       1
    8055    8052      16    8061    8058       1    8064    8061       1    8067
    8061       1    8073    8070      16    8079    8076       1    8082    8079
       1    8085    8079       1    8091    8088      16    8097    8094       1
    8100    8097       1    8103    8097       1    8109    8106      16    8115
    8112       1    8118    8115       1    8121    8115       1    8127    8124
      16    8133    8130       1    8136    8133       1    8139    8133       1
    8145    8142      16    8151    8148       1    8154    8151       1    8157
    8151       1    8163    8160      16    8169    8166       1    8172    8169
       1    8175    8169       1    8181    8178      16    8187    8184       1
    8190    8187       1    8193    8187       1    8199    8196      16    8205
    8202       1    8208    8205       1    8211    8205       1    8217    8214
      16    8223    8220       1    8226    8223       1    8229    8223       1
    8235    8232      16    8241    8238       1    8244    8241       1    8247
    8241       1    8253    8250      16    8259    8256       1    8262    8259
       1    8265    8259       1    8271    8268      16    8277    8274       1
    8280    8277       1    8283    8277       1    8289    8286      16    8295
    8292       1    8298    8295       1    8301    8295       1    8307    8304
      16    8313    8310       1    8316    8313       1    8319    8313       1
    8325    8322      16    8331    8328       1    8334    8331       1    8337
    8331       1    8343    8340      16    8349    8346       1    8352    8349
       1    8355    8349       1    8361    8358      16    8367    8364       1
    8370    8367       1    8373    8367       1    8379    8376      16    8385
    8382       1    8388    8385       1    8391    8385       1    8397    8394
      16    8403    8400       1    8406    8403       1    8409    8403       1
    8415    8412      16    8421    8418       1    8424    8421       1    8427
    8421       1    8433    8430      16    8439    8436       1    8442    8439
       1    8445    8439       1    8451    8448      16    8457    8454       1
    8460    8457       1    8463    8457       1    8469    8466      16    8475
    8472       1    8478    8475       1    8481    8475       1    8487    8484
      16    8493    8490       1    8496    8493       1    8499    8493       1
    8505    8502      16    8511    8508       1    8514    8511       1    8517
    8511       1    8523    8520      16    8529    8526       1    8532    8529
       1    8535    8529       1    8541    8538      16    8547    8544       1
    8550    8547       1    8553    8547       1    8559    8556      16    8565
    8562       1    8568    8565       1    8571    8565       1    8577    8574
      16    8583    8580       1    8586    8583       1    8589    8583       1
    8595    8592      16    8601    8598       1    8604    8601       1    8607
    8601       1    8613    8610      16    8619    8616       1    8622    8619
       1    8625    8619       1    8631    8628      16    8637    8634       1
    8640    8637       1    8643    8637       1    8649    8646      16    8655
    8652       1    8658    8655       1    8661    8655       1    8667    8664
      16    8673    8670       1    8676    8673       1    8679    8673       1
    8685    8682      16    8691    8688       1    8694    8691       1    8697
    8691       1    8703    8700      16    8709    8706       1    8712    8709
       1    8715    8709       1    8721    8718      16    8727    8724       1
    8730    8727       1    8733    8727       1    8739    8736      16    8745
    8742       1    8748    8745       1    8751    8745       1    8757    8754
      16    8763    8760       1    8766    8763       1    8769    8763       1
    8775    8772      16    8781    8778       1    8784    8781       1    8787
    8781       1    8793    8790      16    8799    8796       1    8802    8799
       1    8805    8799       1    8811    8808      16    8817    8814       1
    8820    8817       1    8823    8817       1    8829    8826      16    8835
    8832       1    8838    8835       1    8841    8835       1    8847    8844
      16    8853    8850       1    8856    8853       1    8859    8853       1
    8865    8862      16    8871    8868       1    8874    8871       1    8877
    8871       1    8883    8880      16    8889    8886       1    8892    8889
       1    8895    8889       1    8901    8898      16    8907    8904       1
    8910    8907       1    8913    8907       1    8919    8916      16    8925
    8922       1    8928    8925       1    8931    8925       1    8937    8934
      16    8943    8940       1    8946    8943       1    8949    8943       1
    8955    8952      16    8961    8958       1    8964    8961       1    8967
    8961       1    8973    8970      16    8979    8976       1    8982    8979
       1    8985    8979       1    8991    8988      16    8997    8994       1
    9000    8997       1    9003    8997       1    9009    9006      16    9015
    9012       1    9018    9015       1    9021    9015       1    9027    9024
      16    9033    9030       1    9036    9033       1    9039    9033       1
    9045    9042      16    9051    9048       1    9054    9051       1    9057
    9051       1    9063    9060      16    9069    9066       1    9072    9069
       1    9075    9069       1    9081    9078      16    9087    9084       1
    9090    9087       1    9093    9087       1    9099    9096      16    9105
    9102       1    9108    9105       1    9111    9105       1    9117    9114
      16    9123    9120       1    9126    9123       1    9129    9123       1
    9135    9132      16    9141    9138       1    9144    9141       1    9147
    9141       1    9153    9150      16    9159    9156       1    9162    9159
       1    9165    9159       1    9171    9168      16    9177    9174       1
    9180    9177       1    9183    9177       1    9189    9186      16    9195
    9192       1    9198    9195       1    9201    9195       1    9207    9204
      16    9213    9210       1    9216    9213       1    9219    9213       1
    9225    9222      16    9231    9228       1    9234    9231       1    9237
    9231       1    9243    9240      16    9249    9246       1    9252    9249
       1    9255    9249       1    9261    9258      16    9267    9264       1
    9270    9267       1    9273    9267       1    9279    9276      16    9285
    9282       1    9288    9285       1    9291    9285       1    9297    9294
      16    9303    9300       1    9306    9303       1    9309    9303       1
    9315    9312      16    9321    9318       1    9324    9321       1    9327
    9321       1    9333    9330      16    9339    9336       1    9342    9339
       1    9345    9339       1    9351    9348      16    9357    9354       1
    9360    9357       1    9363    9357       1    9369    9366      16    9375
    9372       1    9378    9375       1    9381    9375       1    9387    9384
      16    9393    9390       1    9396    9393       1    9399    9393       1
    9405    9402      16    9411    9408       1    9414    9411       1    9417
    9411       1    9423    9420      16    9429    9426       1    9432    9429
       1    9435    9429       1    9441    9438      16    9447    9444       1
    9450    9447       1    9453    9447       1    9459    9456      16    9465
    9462       1    9468    9465       1    9471    9465       1    9477    9474
      16    9483    9480       1    9486    9483       1    9489    9483       1
    9495    9492      16    9501    9498       1    9504    9501       1    9507
    9501       1    9513    9510      16    9519    9516       1    9522    9519
       1    9525    9519       1    9531    9528      16    9537    9534       1
    9540    9537       1    9543    9537       1    9549    9546      16    9555
    9552       1    9558    9555       1    9561    9555       1    9567    9564
      16    9573    9570       1    9576    9573       1    9579    9573       1
    9585    9582      16    9591    9588       1    9594    9591       1    9597
    9591       1    9603    9600      16    9609    9606       1    9612    9609
       1    9615    9609       1    9621    9618      16    9627    9624       1
    9630    9627       1    9633    9627       1    9639    9636      16    9645
    9642       1    9648    9645       1    9651    9645       1    9657    9654
      16    9663    9660       1    9666    9663       1    9669    9663       1
    9675    9672      16    9681    9678       1    9684    9681       1    9687
    9681       1    9693    9690      16    9699    9696       1    9702    9699
       1    9705    9699       1    9711    9708      16    9717    9714       1
    9720    9717       1    9723    9717       1    9729    9726      16    9735
    9732       1    9738    9735       1    9741    9735       1    9747    9744
      16    9753    9750       1    9756    9753       1    9759    9753       1
    9765    9762      16    9771    9768       1    9774    9771       1    9777
    9771       1    9783    9780      16    9789    9786       1    9792    9789
       1    9795    9789       1    9801    9798      16    9807    9804       1
    9810    9807       1    9813    9807       1    9819    9816      16    9825
    9822       1    9828    9825       1    9831    9825       1    9837    9834
      16    9843    9840       1    9846    9843       1    9849    9843       1
    9855    9852      16    9861    9858       1    9864    9861       1    9867
    9861       1    9873    9870      16    9879    9876       1    9882    9879
       1    9885    9879       1    9891    9888      16    9897    9894       1
    9900    9897       1    9903    9897       1    9909    9906      16    9915
    9912       1    9918    9915       1    9921    9915       1    9927    9924
      16    9933    9930       1    9936    9933       1    9939    9933       1
    9945    9942      16    9951    9948       1    9954    9951       1    9957
    9951       1    9963    9960      16    9969    9966       1    9972    9969
       1    9975    9969       1    9981    9978      16    9987    9984       1
    9990    9987       1    9993    9987       1    9999    9996      16   10005
   10002       1   10008   10005       1   10011   10005       1   10017   10014
      16   10023   10020       1   10026   10023       1   10029   10023       1
   10035   10032      16   10041   10038       1   10044   10041       1   10047
   10041       1   10053   10050      16   10059   10056       1   10062   10059
       1   10065   10059       1   10071   10068      16   10077   10074       1
   10080   10077       1   10083   10077       1   10089   10086      16   10095
   10092       1   10098   10095       1   10101   10095       1   10107   10104
      16   10113   10110       1   10116   10113       1   10119   10113       1
   10125   10122      16   10131   10128       1   10134   10131       1   10137
   10131       1   10143   10140      16   10149   10146       1   10152   10149
       1   10155   10149       1   10161   10158      16   10167   10164       1
   10170   10167       1   10173   10167       1   10179   10176      16   10185
   10182       1   10188   10185       1   10191   10185       1   10197   10194
      16   10203   10200       1   10206   10203       1   10209   10203       1
   10215   10212      16   10221   10218       1   10224   10221       1   10227
   10221       1   10233   10230      16   10239   10236       1   10242   10239
       1   10245   10239       1   10251   10248      16   10257   10254       1
   10260   10257       1   10263   10257       1   10269   10266      16   10275
   10272       1   10278   10275       1   10281   10275       1   10287   10284
      16   10293   10290       1   10296   10293       1   10299   10293       1
   10305   10302      16   10311   10308       1   10314   10311       1   10317
   10311       1   10323   10320      16   10329   10326       1   10332   10329
       1   10335   10329       1   10341   10338      16   10347   10344       1
   10350   10347       1   10353   10347       1   10359   10356      16   10365
   10362       1   10368   10365       1   10371   10365       1   10377   10374
      16   10383   10380       1   10386   10383       1   10389   10383       1
   10395   10392      16   10401   10398       1   10404   10401       1   10407
   10401       1   10413   10410      16   10419   10416       1   10422   10419
       1   10425   10419       1   10431   10428      16   10437   10434       1
   10440   10437       1   10443   10437       1   10449   10446      16   10455
   10452       1   10458   10455       1   10461   10455       1   10467   10464
      16   10473   10470       1   10476   10473       1   10479   10473       1
   10485   10482      16   10491   10488       1   10494   10491       1   10497
   10491       1   10503   10500      16   10509   10506       1   10512   10509
       1   10515   10509       1   10521   10518      16   10527   10524       1
   10530   10527       1   10533   10527       1   10539   10536      16   10545
   10542       1   10548   10545       1   10551   10545       1   10557   10554
      16   10563   10560       1   10566   10563       1   10569   10563       1
   10575   10572      16   10581   10578       1   10584   10581       1   10587
   10581       1   10593   10590      16   10599   10596       1   10602   10599
       1   10605   10599       1   10611   10608      16   10617   10614       1
   10620   10617       1   10623   10617       1   10629   10626      16   10635
   10632       1   10638   10635       1   10641   10635       1   10647   10644
      16   10653   10650       1   10656   10653       1   10659   10653       1
   10665   10662      16   10671   10668       1   10674   10671       1   10677
   10671       1   10683   10680      16   10689   10686       1   10692   10689
       1   10695   10689       1   10701   10698      16   10707   10704       1
   10710   10707       1   10713   10707       1   10719   10716      16   10725
   10722       1   10728   10725       1   10731   10725       1   10737   10734
      16   10743   10740       1   10746   10743       1   10749   10743       1
   10755   10752      16   10761   10758       1   10764   10761       1   10767
   10761       1   10773   10770      16   10779   10776       1   10782   10779
       1   10785   10779       1   10791   10788      16   10797   10794       1
   10800   10797       1   10803   10797       1   10809   10806      16   10815
   10812       1   10818   10815       1   10821   10815       1   10827   10824
      16   10833   10830       1   10836   10833       1   10839   10833       1
   10845   10842      16   10851   10848       1   10854   10851       1   10857
   10851       1   10863   10860      16   10869   10866       1   10872   10869
       1   10875   10869       1   10881   10878      16   10887   10884       1
   10890   10887       1   10893   10887       1   10899   10896      16   10905
   10902       1   10908   10905       1   10911   10905       1   10917   10914
      16   10923   10920       1   10926   10923       1   10929   10923       1
   10935   10932      16   10941   10938       1   10944   10941       1   10947
   10941       1   10953   10950      16   10959   10956       1   10962   10959
       1   10965   10959       1   10971   10968      16   10977   10974       1
   10980   10977       1   10983   10977       1   10989   10986      16   10995
   10992       1   10998   10995       1   11001   10995       1   11007   11004
      16   11013   11010       1   11016   11013       1   11019   11013       1
   11025   11022      16   11031   11028       1   11034   11031       1   11037
   11031       1   11043   11040      16   11049   11046       1   11052   11049
       1   11055   11049       1   11061   11058      16   11067   11064       1
   11070   11067       1   11073   11067       1   11079   11076      16   11085
   11082       1   11088   11085       1   11091   11085       1   11097   11094
      16   11103   11100       1   11106   11103       1   11109   11103       1
   11115   11112      16   11121   11118       1   11124   11121       1   11127
   11121       1   11133   11130      16   11139   11136       1   11142   11139
       1   11145   11139       1   11151   11148      16   11157   11154       1
   11160   11157       1   11163   11157       1   11169   11166      16   11175
   11172       1   11178   11175       1   11181   11175       1   11187   11184
      16   11193   11190       1   11196   11193       1   11199   11193       1
   11205   11202      16   11211   11208       1   11214   11211       1   11217
   11211       1   11223   11220      16   11229   11226       1   11232   11229
       1   11235   11229       1   11241   11238      16   11247   11244       1
   11250   11247       1   11253   11247       1   11259   11256      16   11265
   11262       1   11268   11265       1   11271   11265       1   11277   11274
      16   11283   11280       1   11286   11283       1   11289   11283       1
   11295   11292      16   11301   11298       1   11304   11301       1   11307
   11301       1   11313   11310      16   11319   11316       1   11322   11319
       1   11325   11319       1   11331   11328      16   11337   11334       1
   11340   11337       1   11343   11337       1   11349   11346      16   11355
   11352       1   11358   11355       1   11361   11355       1   11367   11364
      16   11373   11370       1   11376   11373       1   11379   11373       1
   11385   11382      16   11391   11388       1   11394   11391       1   11397
   11391       1   11403   11400      16   11409   11406       1   11412   11409
       1   11415   11409       1   11421   11418      16   11427   11424       1
   11430   11427       1   11433   11427       1   11439   11436      16   11445
   11442       1   11448   11445       1   11451   11445       1   11457   11454
      16   11463   11460       1   11466   11463       1   11469   11463       1
   11475   11472      16   11481   11478       1   11484   11481       1   11487
   11481       1   11493   11490      16   11499   11496       1   11502   11499
       1   11505   11499       1   11511   11508      16   11517   11514       1
   11520   11517       1   11523   11517       1   11529   11526      16   11535
   11532       1   11538   11535       1   11541   11535       1   11547   11544
      16   11553   11550       1   11556   11553       1   11559   11553       1
   11565   11562      16   11571   11568       1   11574   11571       1   11577
   11571       1   11583   11580      16   11589   11586       1   11592   11589
       1   11595   11589       1   11601   11598      16   11607   11604       1
   11610   11607       1   11613   11607       1   11619   11616      16   11625
   11622       1   11628   11625       1   11631   11625       1   11637   11634
      16   11643   11640       1   11646   11643       1   11649   11643       1
   11655   11652      16   11661   11658       1   11664   11661       1   11667
   11661       1   11673   11670      16   11679   11676       1   11682   11679
       1   11685   11679       1   11691   11688      16   11697   11694       1
   11700   11697       1   11703   11697       1   11709   11706      16   11715
   11712       1   11718   11715       1   11721   11715       1   11727   11724
      16   11733   11730       1   11736   11733       1   11739   11733       1
   11745   11742      16   11751   11748       1   11754   11751       1   11757
   11751       1   11763   11760      16   11769   11766       1   11772   11769
       1   11775   11769       1   11781   11778      16   11787   11784       1
   11790   11787       1   11793   11787       1   11799   11796      16   11805
   11802       1   11808   11805       1   11811   11805       1   11817   11814
      16   11823   11820       1   11826   11823       1   11829   11823       1
   11835   11832      16   11841   11838       1   11844   11841       1   11847
   11841       1   11853   11850      16   11859   11856       1   11862   11859
       1   11865   11859       1   11871   11868      16   11877   11874       1
   11880   11877       1   11883   11877       1   11889   11886      16   11895
   11892       1   11898   11895       1   11901   11895       1   11907   11904
      16   11913   11910       1   11916   11913       1   11919   11913       1
   11925   11922      16   11931   11928       1   11934   11931       1   11937
   11931       1   11943   11940      16   11949   11946       1   11952   11949
       1   11955   11949       1   11961   11958      16   11967   11964       1
   11970   11967       1   11973   11967       1   11979   11976      16   11985
   11982       1   11988   11985       1   11991   11985       1   11997   11994
      16   12003   12000       1   12006   12003       1   12009   12003       1
   12015   12012      16   12021   12018       1   12024   12021       1   12027
   12021       1   12033   12030      16   12039   12036       1   12042   12039
       1   12045   12039       1   12051   12048      16   12057   12054       1
   12060   12057       1   12063   12057       1   12069   12066      16   12075
   12072       1   12078   12075       1   12081   12075       1   12087   12084
      16   12093   12090       1   12096   12093       1   12099   12093       1
   12105   12102      16   12111   12108       1   12114   12111       1   12117
   12111       1   12123   12120      16   12129   12126       1   12132   12129
       1   12135   12129       1   12141   12138      16   12147   12144       1
   12150   12147       1   12153   12147       1   12159   12156      16   12165
   12162       1   12168   12165       1   12171   12165       1   12177   12174
      16   12183   12180       1   12186   12183       1   12189   12183       1
   12195   12192      16   12201   12198       1   12204   12201       1   12207
   12201       1   12213   12210      16   12219   12216       1   12222   12219
       1   12225   12219       1   12231   12228      16   12237   12234       1
   12240   12237       1   12243   12237       1   12249   12246      16   12255
   12252       1   12258   12255       1   12261   12255       1   12267   12264
      16   12273   12270       1   12276   12273       1   12279   12273       1
   12285   12282      16   12291   12288       1   12294   12291       1   12297
   12291       1   12303   12300      16   12309   12306       1   12312   12309
       1   12315   12309       1   12321   12318      16   12327   12324       1
   12330   12327       1   12333   12327       1   12339   12336      16   12345
   12342       1   12348   12345       1   12351   12345       1   12357   12354
      16   12363   12360       1   12366   12363       1   12369   12363       1
   12375   12372      16   12381   12378       1   12384   12381       1   12387
   12381       1   12393   12390      16   12399   12396       1   12402   12399
       1   12405   12399       1   12411   12408      16   12417   12414       1
   12420   12417       1   12423   12417       1   12429   12426      16   12435
   12432       1   12438   12435       1   12441   12435       1   12447   12444
      16   12453   12450       1   12456   12453       1   12459   12453       1
   12465   12462      16   12471   12468       1   12474   12471       1   12477
   12471       1   12483   12480      16   12489   12486       1   12492   12489
       1   12495   12489       1   12501   12498      16   12507   12504       1
   12510   12507       1   12513   12507       1   12519   12516      16   12525
   12522       1   12528   12525       1   12531   12525       1   12537   12534
      16   12543   12540       1   12546   12543       1   12549   12543       1
   12555   12552      16   12561   12558       1   12564   12561       1   12567
   12561       1   12573   12570      16   12579   12576       1   12582   12579
       1   12585   12579       1   12591   12588      16   12597   12594       1
   12600   12597       1   12603   12597       1   12609   12606      16   12615
   12612       1   12618   12615       1   12621   12615       1   12627   12624
      16   12633   12630       1   12636   12633       1   12639   12633       1
   12645   12642      16   12651   12648       1   12654   12651       1   12657
   12651       1   12663   12660      16   12669   12666       1   12672   12669
       1   12675   12669       1   12681   12678      16   12687   12684       1
   12690   12687       1   12693   12687       1   12699   12696      16   12705
   12702       1   12708   12705       1   12711   12705       1   12717   12714
      16   12723   12720       1   12726   12723       1   12729   12723       1
   12735   12732      16   12741   12738       1   12744   12741       1   12747
   12741       1   12753   12750      16   12759   12756       1   12762   12759
       1   12765   12759       1   12771   12768      16   12777   12774       1
   12780   12777       1   12783   12777       1   12789   12786      16   12795
   12792       1   12798   12795       1   12801   12795       1   12807   12804
      16   12813   12810       1   12816   12813       1   12819   12813       1
   12825   12822      16   12831   12828       1   12834   12831       1   12837
   12831       1   12843   12840      16   12849   12846       1   12852   12849
       1   12855   12849       1   12861   12858      16   12867   12864       1
   12870   12867       1   12873   12867       1   12879   12876      16   12885
   12882       1   12888   12885       1   12891   12885       1   12897   12894
      16   12903   12900       1   12906   12903       1   12909   12903       1
   12915   12912      16   12921   12918       1   12924   12921       1   12927
   12921       1   12933   12930      16   12939   12936       1   12942   12939
       1   12945   12939       1   12951   12948      16   12957   12954       1
   12960   12957       1   12963   12957       1   12969   12966      16   12975
   12972       1   12978   12975       1   12981   12975       1   12987   12984
      16   12993   12990       1   12996   12993       1   12999   12993       1
   13005   13002      16   13011   13008       1   13014   13011       1   13017
   13011       1   13023   13020      16   13029   13026       1   13032   13029
       1   13035   13029       1   13041   13038      16   13047   13044       1
   13050   13047       1   13053   13047       1   13059   13056      16   13065
   13062       1   13068   13065       1   13071   13065       1   13077   13074
      16   13083   13080       1   13086   13083       1   13089   13083       1
   13095   13092      16   13101   13098       1   13104   13101       1   13107
   13101       1   13113   13110      16   13119   13116       1   13122   13119
       1   13125   13119       1   13131   13128      16   13137   13134       1
   13140   13137       1   13143   13137       1   13149   13146      16   13155
   13152       1   13158   13155       1   13161   13155       1   13167   13164
      16   13173   13170       1   13176   13173       1   13179   13173       1
   13185   13182      16   13191   13188       1   13194   13191       1   13197
   13191       1   13203   13200      16   13209   13206       1   13212   13209
       1   13215   13209       1   13221   13218      16   13227   13224       1
   13230   13227       1   13233   13227       1   13239   13236      16   13245
   13242       1   13248   13245       1   13251   13245       1   13257   13254
      16   13263   13260       1   13266   13263       1   13269   13263       1
   13275   13272      16   13281   13278       1   13284   13281       1   13287
   13281       1   13293   13290      16   13299   13296       1   13302   13299
       1   13305   13299       1   13311   13308      16   13317   13314       1
   13320   13317       1   13323   13317       1   13329   13326      16   13335
   13332       1   13338   13335       1   13341   13335       1   13347   13344
      16   13353   13350       1   13356   13353       1   13359   13353       1
   13365   13362      16   13371   13368       1   13374   13371       1   13377
   13371       1   13383   13380      16   13389   13386       1   13392   13389
       1   13395   13389       1   13401   13398      16   13407   13404       1
   13410   13407       1   13413   13407       1   13419   13416      16   13425
   13422       1   13428   13425       1   13431   13425       1   13437   13434
      16   13443   13440       1   13446   13443       1   13449   13443       1
   13455   13452      16   13461   13458       1   13464   13461       1   13467
   13461       1   13473   13470      16   13479   13476       1   13482   13479
       1   13485   13479       1   13491   13488      16   13497   13494       1
   13500   13497       1   13503   13497       1   13509   13506      16   13515
   13512       1   13518   13515       1   13521   13515       1   13527   13524
      16   13533   13530       1   13536   13533       1   13539   13533       1
   13545   13542      16   13551   13548       1   13554   13551       1   13557
   13551       1   13563   13560      16   13569   13566       1   13572   13569
       1   13575   13569       1   13581   13578      16   13587   13584       1
   13590   13587       1   13593   13587       1   13599   13596      16   13605
   13602       1   13608   13605       1   13611   13605       1   13617   13614
      16   13623   13620       1   13626   13623       1   13629   13623       1
   13635   13632      16   13641   13638       1   13644   13641       1   13647
   13641       1   13653   13650      16   13659   13656       1   13662   13659
       1   13665   13659       1   13671   13668      16   13677   13674       1
   13680   13677       1   13683   13677       1   13689   13686      16   13695
   13692       1   13698   13695       1   13701   13695       1   13707   13704
      16   13713   13710       1   13716   13713       1   13719   13713       1
   13725   13722      16   13731   13728       1   13734   13731       1   13737
   13731       1   13743   13740      16   13749   13746       1   13752   13749
       1   13755   13749       1   13761   13758      16   13767   13764       1
   13770   13767       1   13773   13767       1   13779   13776      16   13785
   13782       1   13788   13785       1   13791   13785       1   13797   13794
      16   13803   13800       1   13806   13803       1   13809   13803       1
   13815   13812      16   13821   13818       1   13824   13821       1   13827
   13821       1   13833   13830      16   13839   13836       1   13842   13839
       1   13845   13839       1   13851   13848      16   13857   13854       1
   13860   13857       1   13863   13857       1   13869   13866      16   13875
   13872       1   13878   13875       1   13881   13875       1   13887   13884
      16   13893   13890       1   13896   13893       1   13899   13893       1
   13905   13902      16   13911   13908       1   13914   13911       1   13917
   13911       1   13923   13920      16   13929   13926       1   13932   13929
       1   13935   13929       1   13941   13938      16   13947   13944       1
   13950   13947       1   13953   13947       1   13959   13956      16   13965
   13962       1   13968   13965       1   13971   13965       1   13977   13974
      16   13983   13980       1   13986   13983       1   13989   13983       1
   13995   13992      16   14001   13998       1   14004   14001       1   14007
   14001       1   14013   14010      16   14019   14016       1   14022   14019
       1   14025   14019       1   14031   14028      16   14037   14034       1
   14040   14037       1   14043   14037       1   14049   14046      16   14055
   14052       1   14058   14055       1   14061   14055       1   14067   14064
      16   14073   14070       1   14076   14073       1   14079   14073       1
   14085   14082      16   14091   14088       1   14094   14091       1   14097
   14091       1   14103   14100      16   14109   14106       1   14112   14109
       1   14115   14109       1   14121   14118      16   14127   14124       1
   14130   14127       1   14133   14127       1   14139   14136      16   14145
   14142       1   14148   14145       1   14151   14145       1   14157   14154
      16   14163   14160       1   14166   14163       1   14169   14163       1
   14175   14172      16   14181   14178       1   14184   14181       1   14187
   14181       1   14193   14190      16   14199   14196       1   14202   14199
       1   14205   14199       1   14211   14208      16   14217   14214       1
   14220   14217       1   14223   14217       1   14229   14226      16   14235
   14232       1   14238   14235       1   14241   14235       1   14247   14244
      16   14253   14250       1   14256   14253       1   14259   14253       1
   14265   14262      16   14271   14268       1   14274   14271       1   14277
   14271       1   14283   14280      16   14289   14286       1   14292   14289
       1   14295   14289       1   14301   14298      16   14307   14304       1
   14310   14307       1   14313   14307       1   14319   14316      16   14325
   14322       1   14328   14325       1   14331   14325       1   14337   14334
      16   14343   14340       1   14346   14343       1   14349   14343       1
   14355   14352      16   14361   14358       1   14364   14361       1   14367
   14361       1   14373   14370      16   14379   14376       1   14382   14379
       1   14385   14379       1   14391   14388      16   14397   14394       1
   14400   14397       1   14403   14397       1   14409   14406      16   14415
   14412       1   14418   14415       1   14421   14415       1   14427   14424
      16   14433   14430       1   14436   14433       1   14439   14433       1
   14445   14442      16   14451   14448       1   14454   14451       1   14457
   14451       1   14463   14460      16   14469   14466       1   14472   14469
       1   14475   14469       1   14481   14478      16   14487   14484       1
   14490   14487       1   14493   14487       1   14499   14496      16   14505
   14502       1   14508   14505       1   14511   14505       1   14517   14514
      16   14523   14520       1   14526   14523       1   14529   14523       1
   14535   14532      16   14541   14538       1   14544   14541       1   14547
   14541       1   14553   14550      16   14559   14556       1   14562   14559
       1   14565   14559       1   14571   14568      16   14577   14574       1
   14580   14577       1   14583   14577       1   14589   14586      16   14595
   14592       1   14598   14595       1   14601   14595       1   14607   14604
      16   14613   14610       1   14616   14613       1   14619   14613       1
   14625   14622      16   14631   14628       1   14634   14631       1   14637
   14631       1   14643   14640      16   14649   14646       1   14652   14649
       1   14655   14649       1   14661   14658      16   14667   14664       1
   14670   14667       1   14673   14667       1   14679   14676      16   14685
   14682       1   14688   14685       1   14691   14685       1   14697   14694
      16   14703   14700       1   14706   14703       1   14709   14703       1
   14715   14712      16   14721   14718       1   14724   14721       1   14727
   14721       1   14733   14730      16   14739   14736       1   14742   14739
       1   14745   14739       1   14751   14748      16   14757   14754       1
   14760   14757       1   14763   14757       1   14769   14766      16   14775
   14772       1   14778   14775       1   14781   14775       1   14787   14784
      16   14793   14790       1   14796   14793       1   14799   14793       1
   14805   14802      16   14811   14808       1   14814   14811       1   14817
   14811       1   14823   14820      16   14829   14826       1   14832   14829
       1   14835   14829       1   14841   14838      16   14847   14844       1
   14850   14847       1   14853   14847       1   14859   14856      16   14865
   14862       1   14868   14865       1   14871   14865       1   14877   14874
      16   14883   14880       1   14886   14883       1   14889   14883       1
   14895   14892      16   14901   14898       1   14904   14901       1   14907
   14901       1   14913   14910      16   14919   14916       1   14922   14919
       1   14925   14919       1   14931   14928      16   14937   14934       1
   14940   14937       1   14943   14937       1   14949   14946      16   14955
   14952       1   14958   14955       1   14961   14955       1   14967   14964
      16   14973   14970       1   14976   14973       1   14979   14973       1
   14985   14982      16   14991   14988       1   14994   14991       1   14997
   14991       1   15003   15000      16   15009   15006       1   15012   15009
       1   15015   15009       1   15021   15018      16   15027   15024       1
   15030   15027       1   15033   15027       1   15039   15036      16   15045
   15042       1   15048   15045       1   15051   15045       1   15057   15054
      16   15063   15060       1   15066   15063       1   15069   15063       1
   15075   15072      16   15081   15078       1   15084   15081       1   15087
   15081       1   15093   15090      16   15099   15096       1   15102   15099
       1   15105   15099       1   15111   15108      16   15117   15114       1
   15120   15117       1   15123   15117       1   15129   15126      16   15135
   15132       1   15138   15135       1   15141   15135       1   15147   15144
      16   15153   15150       1   15156   15153       1   15159   15153       1
   15165   15162      16   15171   15168       1   15174   15171       1   15177
   15171       1   15183   15180      16   15189   15186       1   15192   15189
       1   15195   15189       1   15201   15198      16   15207   15204       1
   15210   15207       1   15213   15207       1   15219   15216      16   15225
   15222       1   15228   15225       1   15231   15225       1   15237   15234
      16   15243   15240       1   15246   15243       1   15249   15243       1
   15255   15252      16   15261   15258       1   15264   15261       1   15267
   15261       1   15273   15270      16   15279   15276       1   15282   15279
       1   15285   15279       1   15291   15288      16   15297   15294       1
   15300   15297       1   15303   15297       1   15309   15306      16   15315
   15312       1   15318   15315       1   15321   15315       1   15327   15324
      16   15333   15330       1   15336   15333       1   15339   15333       1
   15345   15342      16   15351   15348       1   15354   15351       1   15357
   15351       1   15363   15360      16   15369   15366       1   15372   15369
       1   15375   15369       1   15381   15378      16   15387   15384       1
   15390   15387       1   15393   15387       1   15399   15396      16   15405
   15402       1   15408   15405       1   15411   15405       1   15417   15414
      16   15423   15420       1   15426   15423       1   15429   15423       1
   15435   15432      16   15441   15438       1   15444   15441       1   15447
   15441       1   15453   15450      16   15459   15456       1   15462   15459
       1   15465   15459       1   15471   15468      16   15477   15474       1
   15480   15477       1   15483   15477       1   15489   15486      16   15495
   15492       1   15498   15495       1   15501   15495       1   15507   15504
      16   15513   15510       1   15516   15513       1   15519   15513       1
   15525   15522      16   15531   15528       1   15534   15531       1   15537
   15531       1   15543   15540      16   15549   15546       1   15552   15549
       1   15555   15549       1   15561   15558      16   15567   15564       1
   15570   15567       1   15573   15567       1   15579   15576      16   15585
   15582       1   15588   15585       1   15591   15585       1   15597   15594
      16   15603   15600       1   15606   15603       1   15609   15603       1
   15615   15612      16   15621   15618       1   15624   15621       1   15627
   15621       1   15633   15630      16
%FLAG BONDS_WITHOUT_HYDROGEN                                                    
%FORMAT(10I8)                                                                   
      45      48       2      45      60       2      39      42       3      39
      60       4      39      75       5      18      27       7      12      15
       3      12      45       5       6      12       9       6      18      10
       0       6      12       0     441       5     105     111       7     105
     123       7      96     105       7      90      96       7      75      78
       2      75      90       2      69      72       3      69      90       4
      69     135       5     219     225       7     219     237       7     210
     219       7     204     210       7     189     192       2     189     204
       2     183     186       3     183     204       4     183     249       5
     153     159       7     153     171       7     147     150       3     147
     189       5     141     147       9     141     153      10     135     141
      12     273     276       3     273     285       5     255     261      10
     255     273       9     249     255      12     291     297      10     285
     291      12     279     282       3     279     291       9     279     315
       5     411     417       7     411     429       7     402     411       7
     396     402       7     381     384       2     381     396       2     375
     378       3     375     396       4     375     537       5     345     351
       7     345     363       7     336     345       7     330     336       7
     315     318       2     315     330       2     309     312       3     309
     330       4     309     381       5     558     564       7     558     576
       7     552     558       7     537     540       2     537     552       2
     531     534       3     531     552       4     513     519       7     504
     513       7     486     492      14     480     486      15     480     504
      14     468     474      17     468     513       7     462     468       7
     447     450       2     447     462       2     447     531       5     441
     444       3     441     462       4     600     591      17     618     609
      17     636     627      17     654     645      17     672     663      17
     690     681      17     708     699      17     726     717      17     744
     735      17     762     753      17     780     771      17     798     789
      17     816     807      17     834     825      17     852     843      17
     870     861      17     888     879      17     906     897      17     924
     915      17     942     933      17     960     951      17     978     969
      17     996     987      17    1014    1005      17    1032    1023      17
    1050    1041      17    1068    1059      17    1086    1077      17    1104
    1095      17    1122    1113      17    1140    1131      17    1158    1149
      17    1176    1167      17    1194    1185      17    1212    1203      17
    1230    1221      17    1248    1239      17    1266    1257      17    1284
    1275      17    1302    1293      17    1320    1311      17    1338    1329
      17    1356    1347      17    1374    1365      17    1392    1383      17
    1410    1401      17    1428    1419      17    1446    1437      17    1464
    1455      17    1482    1473      17    1500    1491      17    1518    1509
      17    1536    1527      17    1554    1545      17    1572    1563      17
    1590    1581      17    1608    1599      17    1626    1617      17    1644
    1635      17    1662    1653      17    1680    1671      17    1698    1689
      17    1716    1707      17    1734    1725      17    1752    1743      17
    1770    1761      17    1788    1779      17    1806    1797      17    1824
    1815      17    1842    1833      17    1860    1851      17    1878    1869
      17    1896    1887      17    1914    1905      17    1932    1923      17
    1950    1941      17    1968    1959      17    1986    1977      17    2004
    1995      17    2022    2013      17    2040    2031      17    2058    2049
      17    2076    2067      17    2094    2085      17    2112    2103      17
    2130    2121      17    2148    2139      17    2166    2157      17    2184
    2175      17    2202    2193      17    2220    2211      17    2238    2229
      17    2256    2247      17    2274    2265      17    2292    2283      17
    2310    2301      17    2328    2319      17    2346    2337      17    2364
    2355      17    2382    2373      17    2400    2391      17    2418    2409
      17    2436    2427      17    2454    2445      17    2472    2463      17
    2490    2481      17    2508    2499      17    2526    2517      17    2544
    2535      17    2562    2553      17    2580    2571      17    2598    2589
      17    2616    2607      17    2634    2625      17    2652    2643      17
    2670    2661      17    2688    2679      17    2706    2697      17    2724
    2715      17    2742    2733      17    2760    2751      17    2778    2769
      17    2796    2787      17    2814    2805      17    2832    2823      17
    2850    2841      17    2868    2859      17    2886    2877      17    2904
    2895      17    2922    2913      17    2940    2931      17    2958    2949
      17    2976    2967      17    2994    2985      17    3012    3003      17
    3030    3021      17    3048    3039      17    3066    3057      17    3084
    3075      17    3102    3093      17    3120    3111      17    3138    3129
      17    3156    3147      17    3174    3165      17    3192    3183      17
    3210    3201      17    3228    3219      17    3246    3237      17    3264
    3255      17    3282    3273      17    3300    3291      17    3318    3309
      17    3336    3327      17    3354    3345      17    3372    3363      17
    3390    3381      17    3408    3399      17    3426    3417      17    3444
    3435      17    3462    3453      17    3480    3471      17    3498    3489
      17    3516    3507      17    3534    3525      17    3552    3543      17
    3570    3561      17    3588    3579      17    3606    3597      17    3624
    3615      17    3642    3633      17    3660    3651      17    3678    3669
      17    3696    3687      17    3714    3705      17    3732    3723      17
    3750    3741      17    3768    3759      17    3786    3777      17    3804
    3795      17    3822    3813      17    3840    3831      17    3858    3849
      17    3876    3867      17    3894    3885      17    3912    3903      17
    3930    3921      17    3948    3939      17    3966    3957      17    3984
    3975      17    4002    3993      17    4020    4011      17    4038    4029
      17    4056    4047      17    4074    4065      17    4092    4083      17
    4110    4101      17    4128    4119      17    4146    4137      17    4164
    4155      17    4182    4173      17    4200    4191      17    4218    4209
      17    4236    4227      17    4254    4245      17    4272    4263      17
    4290    4281      17    4308    4299      17    4326    4317      17    4344
    4335      17    4362    4353      17    4380    4371      17    4398    4389
      17    4416    4407      17    4434    4425      17    4452    4443      17
    4470    4461      17    4488    4479      17    4506    4497      17    4524
    4515      17    4542    4533      17    4560    4551      17    4578    4569
      17    4596    4587      17    4614    4605      17    4632    4623      17
    4650    4641      17    4668    4659      17    4686    4677      17    4704
    4695      17    4722    4713      17    4740    4731      17    4758    4749
      17    4776    4767      17    4794    4785      17    4812    4803      17
    4830    4821      17    4848    4839      17    4866    4857      17    4884
    4875      17    4902    4893      17    4920    4911      17    4938    4929
      17    4956    4947      17    4974    4965      17    4992    4983      17
    5010    5001      17    5028    5019      17    5046    5037      17    5064
    5055      17    5082    5073      17    5100    5091      17    5118    5109
      17    5136    5127      17    5154    5145      17    5172    5163      17
    5190    5181      17    5208    5199      17    5226    5217      17    5244
    5235      17    5262    5253      17    5280    5271      17    5298    5289
      17    5316    5307      17    5334    5325      17    5352    5343      17
    5370    5361      17    5388    5379      17    5406    5397      17    5424
    5415      17    5442    5433      17    5460    5451      17    5478    5469
      17    5496    5487      17    5514    5505      17    5532    5523      17
    5550    5541      17    5568    5559      17    5586    5577      17    5604
    5595      17    5622    5613      17    5640    5631      17    5658    5649
      17    5676    5667      17    5694    5685      17    5712    5703      17
    5730    5721      17    5748    5739      17    5766    5757      17    5784
    5775      17    5802    5793      17    5820    5811      17    5838    5829
      17    5856    5847      17    5874    5865      17    5892    5883      17
    5910    5901      17    5928    5919      17    5946    5937      17    5964
    5955      17    5982    5973      17    6000    5991      17    6018    6009
      17    6036    6027      17    6054    6045      17    6072    6063      17
    6090    6081      17    6108    6099      17    6126    6117      17    6144
    6135      17    6162    6153      17    6180    6171      17    6198    6189
      17    6216    6207      17    6234    6225      17    6252    6243      17
    6270    6261      17    6288    6279      17    6306    6297      17    6324
    6315      17    6342    6333      17    6360    6351      17    6378    6369
      17    6396    6387      17    6414    6405      17    6432    6423      17
    6450    6441      17    6468    6459      17    6486    6477      17    6504
    6495      17    6522    6513      17    6540    6531      17    6558    6549
      17    6576    6567      17    6594    6585      17    6612    6603      17
    6630    6621      17    6648    6639      17    6666    6657      17    6684
    6675      17    6702    6693      17    6720    6711      17    6738    6729
      17    6756    6747      17    6774    6765      17    6792    6783      17
    6810    6801      17    6828    6819      17    6846    6837      17    6864
    6855      17    6882    6873      17    6900    6891      17    6918    6909
      17    6936    6927      17    6954    6945      17    6972    6963      17
    6990    6981      17    7008    6999      17    7026    7017      17    7044
    7035      17    7062    7053      17    7080    7071      17    7098    7089
      17    7116    7107      17    7134    7125      17    7152    7143      17
    7170    7161      17    7188    7179      17    7206    7197      17    7224
    7215      17    7242    7233      17    7260    7251      17    7278    7269
      17    7296    7287      17    7314    7305      17    7332    7323      17
    7350    7341      17    7368    7359      17    7386    7377      17    7404
    7395      17    7422    7413      17    7440    7431      17    7458    7449
      17    7476    7467      17    7494    7485      17    7512    7503      17
    7530    7521      17    7548    7539      17    7566    7557      17    7584
    7575      17    7602    7593      17    7620    7611      17    7638    7629
      17    7656    7647      17    7674    7665      17    7692    7683      17
    7710    7701      17    7728    7719      17    7746    7737      17    7764
    7755      17    7782    7773      17    7800    7791      17    7818    7809
      17    7836    7827      17    7854    7845      17    7872    7863      17
    7890    7881      17    7908    7899      17    7926    7917      17    7944
    7935      17    7962    7953      17    7980    7971      17    7998    7989
      17    8016    8007      17    8034    8025      17    8052    8043      17
    8070    8061      17    8088    8079      17    8106    8097      17    8124
    8115      17    8142    8133      17    8160    8151      17    8178    8169
      17    8196    8187      17    8214    8205      17    8232    8223      17
    8250    8241      17    8268    8259      17    8286    8277      17    8304
    8295      17    8322    8313      17    8340    8331      17    8358    8349
      17    8376    8367      17    8394    8385      17    8412    8403      17
    8430    8421      17    8448    8439      17    8466    8457      17    8484
    8475      17    8502    8493      17    8520    8511      17    8538    8529
      17    8556    8547      17    8574    8565      17    8592    8583      17
    8610    8601      17    8628    8619      17    8646    8637      17    8664
    8655      17    8682    8673      17    8700    8691      17    8718    8709
      17    8736    8727      17    8754    8745      17    8772    8763      17
    8790    8781      17    8808    8799      17    8826    8817      17    8844
    8835      17    8862    8853      17    8880    8871      17    8898    8889
      17    8916    8907      17    8934    8925      17    8952    8943      17
    8970    8961      17    8988    8979      17    9006    8997      17    9024
    9015      17    9042    9033      17    9060    9051      17    9078    9069
      17    9096    9087      17    9114    9105      17    9132    9123      17
    9150    9141      17    9168    9159      17    9186    9177      17    9204
    9195      17    9222    9213      17    9240    9231      17    9258    9249
      17    9276    9267      17    9294    9285      17    9312    9303      17
    9330    9321      17    9348    9339      17    9366    9357      17    9384
    9375      17    9402    9393      17    9420    9411      17    9438    9429
      17    9456    9447      17    9474    9465      17    9492    9483      17
    9510    9501      17    9528    9519      17    9546    9537      17    9564
    9555      17    9582    9573      17    9600    9591      17    9618    9609
      17    9636    9627      17    9654    9645      17    9672    9663      17
    9690    9681      17    9708    9699      17    9726    9717      17    9744
    9735      17    9762    9753      17    9780    9771      17    9798    9789
      17    9816    9807      17    9834    9825      17    9852    9843      17
    9870    9861      17    9888    9879      17    9906    9897      17    9924
    9915      17    9942    9933      17    9960    9951      17    9978    9969
      17    9996    9987      17   10014   10005      17   10032   10023      17
   10050   10041      17   10068   10059      17   10086   10077      17   10104
   10095      17   10122   10113      17   10140   10131      17   10158   10149
      17   10176   10167      17   10194   10185      17   10212   10203      17
   10230   10221      17   10248   10239      17   10266   10257      17   10284
   10275      17   10302   10293      17   10320   10311      17   10338   10329
      17   10356   10347      17   10374   10365      17   10392   10383      17
   10410   10401      17   10428   10419      17   10446   10437      17   10464
   10455      17   10482   10473      17   10500   10491      17   10518   10509
      17   10536   10527      17   10554   10545      17   10572   10563      17
   10590   10581      17   10608   10599      17   10626   10617      17   10644
   10635      17   10662   10653      17   10680   10671      17   10698   10689
      17   10716   10707      17   10734   10725      17   10752   10743      17
   10770   10761      17   10788   10779      17   10806   10797      17   10824
   10815      17   10842   10833      17   10860   10851      17   10878   10869
      17   10896   10887      17   10914   10905      17   10932   10923      17
   10950   10941      17   10968   10959      17   10986   10977      17   11004
   10995      17   11022   11013      17   11040   11031      17   11058   11049
      17   11076   11067      17   11094   11085      17   11112   11103      17
   11130   11121      17   11148   11139      17   11166   11157      17   11184
   11175      17   11202   11193      17   11220   11211      17   11238   11229
      17   11256   11247      17   11274   11265      17   11292   11283      17
   11310   11301      17   11328   11319      17   11346   11337      17   11364
   11355      17   11382   11373      17   11400   11391      17   11418   11409
      17   11436   11427      17   11454   11445      17   11472   11463      17
   11490   11481      17   11508   11499      17   11526   11517      17   11544
   11535      17   11562   11553      17   11580   11571      17   11598   11589
      17   11616   11607      17   11634   11625      17   11652   11643      17
   11670   11661      17   11688   11679      17   11706   11697      17   11724
   11715      17   11742   11733      17   11760   11751      17   11778   11769
      17   11796   11787      17   11814   11805      17   11832   11823      17
   11850   11841      17   11868   11859      17   11886   11877      17   11904
   11895      17   11922   11913      17   11940   11931      17   11958   11949
      17   11976   11967      17   11994   11985      17   12012   12003      17
   12030   12021      17   12048   12039      17   12066   12057      17   12084
   12075      17   12102   12093      17   12120   12111      17   12138   12129
      17   12156   12147      17   12174   12165      17   12192   12183      17
   12210   12201      17   12228   12219      17   12246   12237      17   12264
   12255      17   12282   12273      17   12300   12291      17   12318   12309
      17   12336   12327      17   12354   12345      17   12372   12363      17
   12390   12381      17   12408   12399      17   12426   12417      17   12444
   12435      17   12462   12453      17   12480   12471      17   12498   12489
      17   12516   12507      17   12534   12525      17   12552   12543      17
   12570   12561      17   12588   12579      17   12606   12597      17   12624
   12615      17   12642   12633      17   12660   12651      17   12678   12669
      17   12696   12687      17   12714   12705      17   12732   12723      17
   12750   12741      17   12768   12759      17   12786   12777      17   12804
   12795      17   12822   12813      17   12840   12831      17   12858   12849
      17   12876   12867      17   12894   12885      17   12912   12903      17
   12930   12921      17   12948   12939      17   12966   12957      17   12984
   12975      17   13002   12993      17   13020   13011      17   13038   13029
      17   13056   13047      17   13074   13065      17   13092   13083      17
   13110   13101      17   13128   13119      17   13146   13137      17   13164
   13155      17   13182   13173      17   13200   13191      17   13218   13209
      17   13236   13227      17   13254   13245      17   13272   13263      17
   13290   13281      17   13308   13299      17   13326   13317      17   13344
   13335      17   13362   13353      17   13380   13371      17   13398   13389
      17   13416   13407      17   13434   13425      17   13452   13443      17
   13470   13461      17   13488   13479      17   13506   13497      17   13524
   13515      17   13542   13533      17   13560   13551      17   13578   13569
      17   13596   13587      17   13614   13605      17   13632   13623      17
   13650   13641      17   13668   13659      17   13686   13677      17   13704
   13695      17   13722   13713      17   13740   13731      17   13758   13749
      17   13776   13767      17   13794   13785      17   13812   13803      17
   13830   13821      17   13848   13839      17   13866   13857      17   13884
   13875      17   13902   13893      17   13920   13911      17   13938   13929
      17   13956   13947      17   13974   13965      17   13992   13983      17
   14010   14001      17   14028   14019      17   14046   14037      17   14064
   14055      17   14082   14073      17   14100   14091      17   14118   14109
      17   14136   14127      17   14154   14145      17   14172   14163      17
   14190   14181      17   14208   14199      17   14226   14217      17   14244
   14235      17   14262   14253      17   14280   14271      17   14298   14289
      17   14316   14307      17   14334   14325      17   14352   14343      17
   14370   14361      17   14388   14379      17   14406   14397      17   14424
   14415      17   14442   14433      17   14460   14451      17   14478   14469
      17   14496   14487      17   14514   14505      17   14532   14523      17
   14550   14541      17   14568   14559      17   14586   14577      17   14604
   14595      17   14622   14613      17   14640   14631      17   14658   14649
      17   14676   14667      17   14694   14685      17   14712   14703      17
   14730   14721      17   14748   14739      17   14766   14757      17   14784
   14775      17   14802   14793      17   14820   14811      17   14838   14829
      17   14856   14847      17   14874   14865      17   14892   14883      17
   14910   14901      17   14928   14919      17   14946   14937      17   14964
   14955      17   14982   14973      17   15000   14991      17   15018   15009
      17   15036   15027      17   15054   15045      17   15072   15063      17
   15090   15081      17   15108   15099      17   15126   15117      17   15144
   15135      17   15162   15153      17   15180   15171      17   15198   15189
      17   15216   15207      17   15234   15225      17   15252   15243      17
   15270   15261      17   15288   15279      17   15306   15297      17   15324
   15315      17   15342   15333      17   15360   15351      17   15378   15369
      17   15396   15387      17   15414   15405      17   15432   15423      17
   15450   15441      17   15468   15459      17   15486   15477      17   15504
   15495      17   15522   15513      17   15540   15531      17   15558   15549
      17   15576   15567      17   15594   15585      17   15612   15603      17
   15630   15621      17
%FLAG ANGLES_INC_HYDROGEN                                                       
%FORMAT(10I8)                                                                   
      63      60      66       1      54      48      57       1      51      48
      54       1      51      48      57       1      45      48      51       4
      45      48      54       4      45      48      57       4      45      60
      63       4      45      60      66       4      39      60      63       8
      39      60      66       8      33      27      36      10      30      27
      33      10      30      27      36      10      24      18      27      11
      21      18      24      10      21      18      27      11      18      27
      30      11      18      27      33      11      18      27      36      11
       9       6      12      13       9       6      18      14       6      18
      21      18       6      18      24      18       3       0       6      20
       3       0     441      21       0       6       9      22     129     123
     132      10     126     123     129      10     126     123     132      10
     117     111     120      10     114     111     117      10     114     111
     120      10     108     105     111      11     108     105     123      11
     105     111     114      11     105     111     117      11     105     111
     120      11     105     123     126      11     105     123     129      11
     105     123     132      11     102      96     105      11      99      96
     102      10      99      96     105      11      96     105     108      11
      93      90      96      26      90      96      99      11      90      96
     102      11      84      78      87       1      81      78      84       1
      81      78      87       1      75      78      81       4      75      78
      84       4      75      78      87       4      75      90      93       4
      69      90      93       8      69     135     138      21     243     237
     246      10     240     237     243      10     240     237     246      10
     231     225     234      10     228     225     231      10     228     225
     234      10     222     219     225      11     222     219     237      11
     219     225     228      11     219     225     231      11     219     225
     234      11     219     237     240      11     219     237     243      11
     219     237     246      11     216     210     219      11     213     210
     216      10     213     210     219      11     210     219     222      11
     207     204     210      26     204     210     213      11     204     210
     216      11     198     192     201       1     195     192     198       1
     195     192     201       1     189     192     195       4     189     192
     198       4     189     192     201       4     189     204     207       4
     183     204     207       8     183     249     252      21     177     171
     180      10     174     171     177      10     174     171     180      10
     165     159     168      10     162     159     165      10     162     159
     168      10     156     153     159      11     156     153     171      11
     153     159     162      11     153     159     165      11     153     159
     168      11     153     171     174      11     153     171     177      11
     153     171     180      11     144     141     147      13     144     141
     153      14     141     153     156      18     138     135     141      20
     135     141     144      22     273     285     288      21     267     261
     270      10     264     261     267      10     264     261     270      10
     258     255     261      14     258     255     273      13     255     261
     264      18     255     261     267      18     255     261     270      18
     252     249     255      20     249     255     258      22     303     297
     306      10     300     297     303      10     300     297     306      10
     294     291     297      14     291     297     300      18     291     297
     303      18     291     297     306      18     288     285     291      20
     285     291     294      22     279     291     294      13     435     429
     438      10     432     429     435      10     432     429     438      10
     423     417     426      10     420     417     423      10     420     417
     426      10     414     411     417      11     414     411     429      11
     411     417     420      11     411     417     423      11     411     417
     426      11     411     429     432      11     411     429     435      11
     411     429     438      11     408     402     411      11     405     402
     408      10     405     402     411      11     402     411     414      11
     399     396     402      26     396     402     405      11     396     402
     408      11     390     384     393       1     387     384     390       1
     387     384     393       1     381     384     387       4     381     384
     390       4     381     384     393       4     381     396     399       4
     375     396     399       8     369     363     372      10     366     363
     369      10     366     363     372      10     357     351     360      10
     354     351     357      10     354     351     360      10     348     345
     351      11     348     345     363      11     345     351     354      11
     345     351     357      11     345     351     360      11     345     363
     366      11     345     363     369      11     345     363     372      11
     342     336     345      11     339     336     342      10     339     336
     345      11     336     345     348      11     333     330     336      26
     330     336     339      11     330     336     342      11     324     318
     327       1     321     318     324       1     321     318     327       1
     315     318     321       4     315     318     324       4     315     318
     327       4     315     330     333       4     309     330     333       8
     582     576     585      10     579     576     582      10     579     576
     585      10     570     564     573      10     567     564     570      10
     567     564     573      10     561     558     564      11     561     558
     576      11     558     564     567      11     558     564     570      11
     558     564     573      11     558     576     579      11     558     576
     582      11     558     576     585      11     555     552     558      26
     552     558     561      11     546     540     549       1     543     540
     546       1     543     540     549       1     537     540     543       4
     537     540     546       4     537     540     549       4     537     552
     555       4     531     552     555       8     525     519     528      10
     522     519     525      10     522     519     528      10     516     513
     519      11     513     519     522      11     513     519     525      11
     513     519     528      11     510     504     513      11     507     504
     510      10     507     504     513      11     504     513     516      11
     498     492     501      10     495     492     498      10     495     492
     501      10     489     486     492      29     486     492     495      31
     486     492     498      31     486     492     501      31     483     480
     486      32     483     480     504      29     480     486     489      32
     480     504     507      31     480     504     510      31     471     468
     474      35     471     468     513      26     468     474     477      36
     468     513     516      11     465     462     468      26     462     468
     471      26     456     450     459       1     453     450     456       1
     453     450     459       1     447     450     453       4     447     450
     456       4     447     450     459       4     447     462     465       4
     441     462     465       8     594     591     588       1     597     591
     588       1     597     591     594       1     600     591     588      35
     600     591     594      35     600     591     597      35     603     600
     591      36     612     609     606       1     615     609     606       1
     615     609     612       1     618     609     606      35     618     609
     612      35     618     609     615      35     621     618     609      36
     630     627     624       1     633     627     624       1     633     627
     630       1     636     627     624      35     636     627     630      35
     636     627     633      35     639     636     627      36     648     645
     642       1     651     645     642       1     651     645     648       1
     654     645     642      35     654     645     648      35     654     645
     651      35     657     654     645      36     666     663     660       1
     669     663     660       1     669     663     666       1     672     663
     660      35     672     663     666      35     672     663     669      35
     675     672     663      36     684     681     678       1     687     681
     678       1     687     681     684       1     690     681     678      35
     690     681     684      35     690     681     687      35     693     690
     681      36     702     699     696       1     705     699     696       1
     705     699     702       1     708     699     696      35     708     699
     702      35     708     699     705      35     711     708     699      36
     720     717     714       1     723     717     714       1     723     717
     720       1     726     717     714      35     726     717     720      35
     726     717     723      35     729     726     717      36     738     735
     732       1     741     735     732       1     741     735     738       1
     744     735     732      35     744     735     738      35     744     735
     741      35     747     744     735      36     756     753     750       1
     759     753     750       1     759     753     756       1     762     753
     750      35     762     753     756      35     762     753     759      35
     765     762     753      36     774     771     768       1     777     771
     768       1     777     771     774       1     780     771     768      35
     780     771     774      35     780     771     777      35     783     780
     771      36     792     789     786       1     795     789     786       1
     795     789     792       1     798     789     786      35     798     789
     792      35     798     789     795      35     801     798     789      36
     810     807     804       1     813     807     804       1     813     807
     810       1     816     807     804      35     816     807     810      35
     816     807     813      35     819     816     807      36     828     825
     822       1     831     825     822       1     831     825     828       1
     834     825     822      35     834     825     828      35     834     825
     831      35     837     834     825      36     846     843     840       1
     849     843     840       1     849     843     846       1     852     843
     840      35     852     843     846      35     852     843     849      35
     855     852     843      36     864     861     858       1     867     861
     858       1     867     861     864       1     870     861     858      35
     870     861     864      35     870     861     867      35     873     870
     861      36     882     879     876       1     885     879     876       1
     885     879     882       1     888     879     876      35     888     879
     882      35     888     879     885      35     891     888     879      36
     900     897     894       1     903     897     894       1     903     897
     900       1     906     897     894      35     906     897     900      35
     906     897     903      35     909     906     897      36     918     915
     912       1     921     915     912       1     921     915     918       1
     924     915     912      35     924     915     918      35     924     915
     921      35     927     924     915      36     936     933     930       1
     939     933     930       1     939     933     936       1     942     933
     930      35     942     933     936      35     942     933     939      35
     945     942     933      36     954     951     948       1     957     951
     948       1     957     951     954       1     960     951     948      35
     960     951     954      35     960     951     957      35     963     960
     951      36     972     969     966       1     975     969     966       1
     975     969     972       1     978     969     966      35     978     969
     972      35     978     969     975      35     981     978     969      36
     990     987     984       1     993     987     984       1     993     987
     990       1     996     987     984      35     996     987     990      35
     996     987     993      35     999     996     987      36    1008    1005
    1002       1    1011    1005    1002       1    1011    1005    1008       1
    1014    1005    1002      35    1014    1005    1008      35    1014    1005
    1011      35    1017    1014    1005      36    1026    1023    1020       1
    1029    1023    1020       1    1029    1023    1026       1    1032    1023
    1020      35    1032    1023    1026      35    1032    1023    1029      35
    1035    1032    1023      36    1044    1041    1038       1    1047    1041
    1038       1    1047    1041    1044       1    1050    1041    1038      35
    1050    1041    1044      35    1050    1041    1047      35    1053    1050
    1041      36    1062    1059    1056       1    1065    1059    1056       1
    1065    1059    1062       1    1068    1059    1056      35    1068    1059
    1062      35    1068    1059    1065      35    1071    1068    1059      36
    1080    1077    1074       1    1083    1077    1074       1    1083    1077
    1080       1    1086    1077    1074      35    1086    1077    1080      35
    1086    1077    1083      35    1089    1086    1077      36    1098    1095
    1092       1    1101    1095    1092       1    1101    1095    1098       1
    1104    1095    1092      35    1104    1095    1098      35    1104    1095
    1101      35    1107    1104    1095      36    1116    1113    1110       1
    1119    1113    1110       1    1119    1113    1116       1    1122    1113
    1110      35    1122    1113    1116      35    1122    1113    1119      35
    1125    1122    1113      36    1134    1131    1128       1    1137    1131
    1128       1    1137    1131    1134       1    1140    1131    1128      35
    1140    1131    1134      35    1140    1131    1137      35    1143    1140
    1131      36    1152    1149    1146       1    1155    1149    1146       1
    1155    1149    1152       1    1158    1149    1146      35    1158    1149
    1152      35    1158    1149    1155      35    1161    1158    1149      36
    1170    1167    1164       1    1173    1167    1164       1    1173    1167
    1170       1    1176    1167    1164      35    1176    1167    1170      35
    1176    1167    1173      35    1179    1176    1167      36    1188    1185
    1182       1    1191    1185    1182       1    1191    1185    1188       1
    1194    1185    1182      35    1194    1185    1188      35    1194    1185
    1191      35    1197    1194    1185      36    1206    1203    1200       1
    1209    1203    1200       1    1209    1203    1206       1    1212    1203
    1200      35    1212    1203    1206      35    1212    1203    1209      35
    1215    1212    1203      36    1224    1221    1218       1    1227    1221
    1218       1    1227    1221    1224       1    1230    1221    1218      35
    1230    1221    1224      35    1230    1221    1227      35    1233    1230
    1221      36    1242    1239    1236       1    1245    1239    1236       1
    1245    1239    1242       1    1248    1239    1236      35    1248    1239
    1242      35    1248    1239    1245      35    1251    1248    1239      36
    1260    1257    1254       1    1263    1257    1254       1    1263    1257
    1260       1    1266    1257    1254      35    1266    1257    1260      35
    1266    1257    1263      35    1269    1266    1257      36    1278    1275
    1272       1    1281    1275    1272       1    1281    1275    1278       1
    1284    1275    1272      35    1284    1275    1278      35    1284    1275
    1281      35    1287    1284    1275      36    1296    1293    1290       1
    1299    1293    1290       1    1299    1293    1296       1    1302    1293
    1290      35    1302    1293    1296      35    1302    1293    1299      35
    1305    1302    1293      36    1314    1311    1308       1    1317    1311
    1308       1    1317    1311    1314       1    1320    1311    1308      35
    1320    1311    1314      35    1320    1311    1317      35    1323    1320
    1311      36    1332    1329    1326       1    1335    1329    1326       1
    1335    1329    1332       1    1338    1329    1326      35    1338    1329
    1332      35    1338    1329    1335      35    1341    1338    1329      36
    1350    1347    1344       1    1353    1347    1344       1    1353    1347
    1350       1    1356    1347    1344      35    1356    1347    1350      35
    1356    1347    1353      35    1359    1356    1347      36    1368    1365
    1362       1    1371    1365    1362       1    1371    1365    1368       1
    1374    1365    1362      35    1374    1365    1368      35    1374    1365
    1371      35    1377    1374    1365      36    1386    1383    1380       1
    1389    1383    1380       1    1389    1383    1386       1    1392    1383
    1380      35    1392    1383    1386      35    1392    1383    1389      35
    1395    1392    1383      36    1404    1401    1398       1    1407    1401
    1398       1    1407    1401    1404       1    1410    1401    1398      35
    1410    1401    1404      35    1410    1401    1407      35    1413    1410
    1401      36    1422    1419    1416       1    1425    1419    1416       1
    1425    1419    1422       1    1428    1419    1416      35    1428    1419
    1422      35    1428    1419    1425      35    1431    1428    1419      36
    1440    1437    1434       1    1443    1437    1434       1    1443    1437
    1440       1    1446    1437    1434      35    1446    1437    1440      35
    1446    1437    1443      35    1449    1446    1437      36    1458    1455
    1452       1    1461    1455    1452       1    1461    1455    1458       1
    1464    1455    1452      35    1464    1455    1458      35    1464    1455
    1461      35    1467    1464    1455      36    1476    1473    1470       1
    1479    1473    1470       1    1479    1473    1476       1    1482    1473
    1470      35    1482    1473    1476      35    1482    1473    1479      35
    1485    1482    1473      36    1494    1491    1488       1    1497    1491
    1488       1    1497    1491    1494       1    1500    1491    1488      35
    1500    1491    1494      35    1500    1491    1497      35    1503    1500
    1491      36    1512    1509    1506       1    1515    1509    1506       1
    1515    1509    1512       1    1518    1509    1506      35    1518    1509
    1512      35    1518    1509    1515      35    1521    1518    1509      36
    1530    1527    1524       1    1533    1527    1524       1    1533    1527
    1530       1    1536    1527    1524      35    1536    1527    1530      35
    1536    1527    1533      35    1539    1536    1527      36    1548    1545
    1542       1    1551    1545    1542       1    1551    1545    1548       1
    1554    1545    1542      35    1554    1545    1548      35    1554    1545
    1551      35    1557    1554    1545      36    1566    1563    1560       1
    1569    1563    1560       1    1569    1563    1566       1    1572    1563
    1560      35    1572    1563    1566      35    1572    1563    1569      35
    1575    1572    1563      36    1584    1581    1578       1    1587    1581
    1578       1    1587    1581    1584       1    1590    1581    1578      35
    1590    1581    1584      35    1590    1581    1587      35    1593    1590
    1581      36    1602    1599    1596       1    1605    1599    1596       1
    1605    1599    1602       1    1608    1599    1596      35    1608    1599
    1602      35    1608    1599    1605      35    1611    1608    1599      36
    1620    1617    1614       1    1623    1617    1614       1    1623    1617
    1620       1    1626    1617    1614      35    1626    1617    1620      35
    1626    1617    1623      35    1629    1626    1617      36    1638    1635
    1632       1    1641    1635    1632       1    1641    1635    1638       1
    1644    1635    1632      35    1644    1635    1638      35    1644    1635
    1641      35    1647    1644    1635      36    1656    1653    1650       1
    1659    1653    1650       1    1659    1653    1656       1    1662    1653
    1650      35    1662    1653    1656      35    1662    1653    1659      35
    1665    1662    1653      36    1674    1671    1668       1    1677    1671
    1668       1    1677    1671    1674       1    1680    1671    1668      35
    1680    1671    1674      35    1680    1671    1677      35    1683    1680
    1671      36    1692    1689    1686       1    1695    1689    1686       1
    1695    1689    1692       1    1698    1689    1686      35    1698    1689
    1692      35    1698    1689    1695      35    1701    1698    1689      36
    1710    1707    1704       1    1713    1707    1704       1    1713    1707
    1710       1    1716    1707    1704      35    1716    1707    1710      35
    1716    1707    1713      35    1719    1716    1707      36    1728    1725
    1722       1    1731    1725    1722       1    1731    1725    1728       1
    1734    1725    1722      35    1734    1725    1728      35    1734    1725
    1731      35    1737    1734    1725      36    1746    1743    1740       1
    1749    1743    1740       1    1749    1743    1746       1    1752    1743
    1740      35    1752    1743    1746      35    1752    1743    1749      35
    1755    1752    1743      36    1764    1761    1758       1    1767    1761
    1758       1    1767    1761    1764       1    1770    1761    1758      35
    1770    1761    1764      35    1770    1761    1767      35    1773    1770
    1761      36    1782    1779    1776       1    1785    1779    1776       1
    1785    1779    1782       1    1788    1779    1776      35    1788    1779
    1782      35    1788    1779    1785      35    1791    1788    1779      36
    1800    1797    1794       1    1803    1797    1794       1    1803    1797
    1800       1    1806    1797    1794      35    1806    1797    1800      35
    1806    1797    1803      35    1809    1806    1797      36    1818    1815
    1812       1    1821    1815    1812       1    1821    1815    1818       1
    1824    1815    1812      35    1824    1815    1818      35    1824    1815
    1821      35    1827    1824    1815      36    1836    1833    1830       1
    1839    1833    1830       1    1839    1833    1836       1    1842    1833
    1830      35    1842    1833    1836      35    1842    1833    1839      35
    1845    1842    1833      36    1854    1851    1848       1    1857    1851
    1848       1    1857    1851    1854       1    1860    1851    1848      35
    1860    1851    1854      35    1860    1851    1857      35    1863    1860
    1851      36    1872    1869    1866       1    1875    1869    1866       1
    1875    1869    1872       1    1878    1869    1866      35    1878    1869
    1872      35    1878    1869    1875      35    1881    1878    1869      36
    1890    1887    1884       1    1893    1887    1884       1    1893    1887
    1890       1    1896    1887    1884      35    1896    1887    1890      35
    1896    1887    1893      35    1899    1896    1887      36    1908    1905
    1902       1    1911    1905    1902       1    1911    1905    1908       1
    1914    1905    1902      35    1914    1905    1908      35    1914    1905
    1911      35    1917    1914    1905      36    1926    1923    1920       1
    1929    1923    1920       1    1929    1923    1926       1    1932    1923
    1920      35    1932    1923    1926      35    1932    1923    1929      35
    1935    1932    1923      36    1944    1941    1938       1    1947    1941
    1938       1    1947    1941    1944       1    1950    1941    1938      35
    1950    1941    1944      35    1950    1941    1947      35    1953    1950
    1941      36    1962    1959    1956       1    1965    1959    1956       1
    1965    1959    1962       1    1968    1959    1956      35    1968    1959
    1962      35    1968    1959    1965      35    1971    1968    1959      36
    1980    1977    1974       1    1983    1977    1974       1    1983    1977
    1980       1    1986    1977    1974      35    1986    1977    1980      35
    1986    1977    1983      35    1989    1986    1977      36    1998    1995
    1992       1    2001    1995    1992       1    2001    1995    1998       1
    2004    1995    1992      35    2004    1995    1998      35    2004    1995
    2001      35    2007    2004    1995      36    2016    2013    2010       1
    2019    2013    2010       1    2019    2013    2016       1    2022    2013
    2010      35    2022    2013    2016      35    2022    2013    2019      35
    2025    2022    2013      36    2034    2031    2028       1    2037    2031
    2028       1    2037    2031    2034       1    2040    2031    2028      35
    2040    2031    2034      35    2040    2031    2037      35    2043    2040
    2031      36    2052    2049    2046       1    2055    2049    2046       1
    2055    2049    2052       1    2058    2049    2046      35    2058    2049
    2052      35    2058    2049    2055      35    2061    2058    2049      36
    2070    2067    2064       1    2073    2067    2064       1    2073    2067
    2070       1    2076    2067    2064      35    2076    2067    2070      35
    2076    2067    2073      35    2079    2076    2067      36    2088    2085
    2082       1    2091    2085    2082       1    2091    2085    2088       1
    2094    2085    2082      35    2094    2085    2088      35    2094    2085
    2091      35    2097    2094    2085      36    2106    2103    2100       1
    2109    2103    2100       1    2109    2103    2106       1    2112    2103
    2100      35    2112    2103    2106      35    2112    2103    2109      35
    2115    2112    2103      36    2124    2121    2118       1    2127    2121
    2118       1    2127    2121    2124       1    2130    2121    2118      35
    2130    2121    2124      35    2130    2121    2127      35    2133    2130
    2121      36    2142    2139    2136       1    2145    2139    2136       1
    2145    2139    2142       1    2148    2139    2136      35    2148    2139
    2142      35    2148    2139    2145      35    2151    2148    2139      36
    2160    2157    2154       1    2163    2157    2154       1    2163    2157
    2160       1    2166    2157    2154      35    2166    2157    2160      35
    2166    2157    2163      35    2169    2166    2157      36    2178    2175
    2172       1    2181    2175    2172       1    2181    2175    2178       1
    2184    2175    2172      35    2184    2175    2178      35    2184    2175
    2181      35    2187    2184    2175      36    2196    2193    2190       1
    2199    2193    2190       1    2199    2193    2196       1    2202    2193
    2190      35    2202    2193    2196      35    2202    2193    2199      35
    2205    2202    2193      36    2214    2211    2208       1    2217    2211
    2208       1    2217    2211    2214       1    2220    2211    2208      35
    2220    2211    2214      35    2220    2211    2217      35    2223    2220
    2211      36    2232    2229    2226       1    2235    2229    2226       1
    2235    2229    2232       1    2238    2229    2226      35    2238    2229
    2232      35    2238    2229    2235      35    2241    2238    2229      36
    2250    2247    2244       1    2253    2247    2244       1    2253    2247
    2250       1    2256    2247    2244      35    2256    2247    2250      35
    2256    2247    2253      35    2259    2256    2247      36    2268    2265
    2262       1    2271    2265    2262       1    2271    2265    2268       1
    2274    2265    2262      35    2274    2265    2268      35    2274    2265
    2271      35    2277    2274    2265      36    2286    2283    2280       1
    2289    2283    2280       1    2289    2283    2286       1    2292    2283
    2280      35    2292    2283    2286      35    2292    2283    2289      35
    2295    2292    2283      36    2304    2301    2298       1    2307    2301
    2298       1    2307    2301    2304       1    2310    2301    2298      35
    2310    2301    2304      35    2310    2301    2307      35    2313    2310
    2301      36    2322    2319    2316       1    2325    2319    2316       1
    2325    2319    2322       1    2328    2319    2316      35    2328    2319
    2322      35    2328    2319    2325      35    2331    2328    2319      36
    2340    2337    2334       1    2343    2337    2334       1    2343    2337
    2340       1    2346    2337    2334      35    2346    2337    2340      35
    2346    2337    2343      35    2349    2346    2337      36    2358    2355
    2352       1    2361    2355    2352       1    2361    2355    2358       1
    2364    2355    2352      35    2364    2355    2358      35    2364    2355
    2361      35    2367    2364    2355      36    2376    2373    2370       1
    2379    2373    2370       1    2379    2373    2376       1    2382    2373
    2370      35    2382    2373    2376      35    2382    2373    2379      35
    2385    2382    2373      36    2394    2391    2388       1    2397    2391
    2388       1    2397    2391    2394       1    2400    2391    2388      35
    2400    2391    2394      35    2400    2391    2397      35    2403    2400
    2391      36    2412    2409    2406       1    2415    2409    2406       1
    2415    2409    2412       1    2418    2409    2406      35    2418    2409
    2412      35    2418    2409    2415      35    2421    2418    2409      36
    2430    2427    2424       1    2433    2427    2424       1    2433    2427
    2430       1    2436    2427    2424      35    2436    2427    2430      35
    2436    2427    2433      35    2439    2436    2427      36    2448    2445
    2442       1    2451    2445    2442       1    2451    2445    2448       1
    2454    2445    2442      35    2454    2445    2448      35    2454    2445
    2451      35    2457    2454    2445      36    2466    2463    2460       1
    2469    2463    2460       1    2469    2463    2466       1    2472    2463
    2460      35    2472    2463    2466      35    2472    2463    2469      35
    2475    2472    2463      36    2484    2481    2478       1    2487    2481
    2478       1    2487    2481    2484       1    2490    2481    2478      35
    2490    2481    2484      35    2490    2481    2487      35    2493    2490
    2481      36    2502    2499    2496       1    2505    2499    2496       1
    2505    2499    2502       1    2508    2499    2496      35    2508    2499
    2502      35    2508    2499    2505      35    2511    2508    2499      36
    2520    2517    2514       1    2523    2517    2514       1    2523    2517
    2520       1    2526    2517    2514      35    2526    2517    2520      35
    2526    2517    2523      35    2529    2526    2517      36    2538    2535
    2532       1    2541    2535    2532       1    2541    2535    2538       1
    2544    2535    2532      35    2544    2535    2538      35    2544    2535
    2541      35    2547    2544    2535      36    2556    2553    2550       1
    2559    2553    2550       1    2559    2553    2556       1    2562    2553
    2550      35    2562    2553    2556      35    2562    2553    2559      35
    2565    2562    2553      36    2574    2571    2568       1    2577    2571
    2568       1    2577    2571    2574       1    2580    2571    2568      35
    2580    2571    2574      35    2580    2571    2577      35    2583    2580
    2571      36    2592    2589    2586       1    2595    2589    2586       1
    2595    2589    2592       1    2598    2589    2586      35    2598    2589
    2592      35    2598    2589    2595      35    2601    2598    2589      36
    2610    2607    2604       1    2613    2607    2604       1    2613    2607
    2610       1    2616    2607    2604      35    2616    2607    2610      35
    2616    2607    2613      35    2619    2616    2607      36    2628    2625
    2622       1    2631    2625    2622       1    2631    2625    2628       1
    2634    2625    2622      35    2634    2625    2628      35    2634    2625
    2631      35    2637    2634    2625      36    2646    2643    2640       1
    2649    2643    2640       1    2649    2643    2646       1    2652    2643
    2640      35    2652    2643    2646      35    2652    2643    2649      35
    2655    2652    2643      36    2664    2661    2658       1    2667    2661
    2658       1    2667    2661    2664       1    2670    2661    2658      35
    2670    2661    2664      35    2670    2661    2667      35    2673    2670
    2661      36    2682    2679    2676       1    2685    2679    2676       1
    2685    2679    2682       1    2688    2679    2676      35    2688    2679
    2682      35    2688    2679    2685      35    2691    2688    2679      36
    2700    2697    2694       1    2703    2697    2694       1    2703    2697
    2700       1    2706    2697    2694      35    2706    2697    2700      35
    2706    2697    2703      35    2709    2706    2697      36    2718    2715
    2712       1    2721    2715    2712       1    2721    2715    2718       1
    2724    2715    2712      35    2724    2715    2718      35    2724    2715
    2721      35    2727    2724    2715      36    2736    2733    2730       1
    2739    2733    2730       1    2739    2733    2736       1    2742    2733
    2730      35    2742    2733    2736      35    2742    2733    2739      35
    2745    2742    2733      36    2754    2751    2748       1    2757    2751
    2748       1    2757    2751    2754       1    2760    2751    2748      35
    2760    2751    2754      35    2760    2751    2757      35    2763    2760
    2751      36    2772    2769    2766       1    2775    2769    2766       1
    2775    2769    2772       1    2778    2769    2766      35    2778    2769
    2772      35    2778    2769    2775      35    2781    2778    2769      36
    2790    2787    2784       1    2793    2787    2784       1    2793    2787
    2790       1    2796    2787    2784      35    2796    2787    2790      35
    2796    2787    2793      35    2799    2796    2787      36    2808    2805
    2802       1    2811    2805    2802       1    2811    2805    2808       1
    2814    2805    2802      35    2814    2805    2808      35    2814    2805
    2811      35    2817    2814    2805      36    2826    2823    2820       1
    2829    2823    2820       1    2829    2823    2826       1    2832    2823
    2820      35    2832    2823    2826      35    2832    2823    2829      35
    2835    2832    2823      36    2844    2841    2838       1    2847    2841
    2838       1    2847    2841    2844       1    2850    2841    2838      35
    2850    2841    2844      35    2850    2841    2847      35    2853    2850
    2841      36    2862    2859    2856       1    2865    2859    2856       1
    2865    2859    2862       1    2868    2859    2856      35    2868    2859
    2862      35    2868    2859    2865      35    2871    2868    2859      36
    2880    2877    2874       1    2883    2877    2874       1    2883    2877
    2880       1    2886    2877    2874      35    2886    2877    2880      35
    2886    2877    2883      35    2889    2886    2877      36    2898    2895
    2892       1    2901    2895    2892       1    2901    2895    2898       1
    2904    2895    2892      35    2904    2895    2898      35    2904    2895
    2901      35    2907    2904    2895      36    2916    2913    2910       1
    2919    2913    2910       1    2919    2913    2916       1    2922    2913
    2910      35    2922    2913    2916      35    2922    2913    2919      35
    2925    2922    2913      36    2934    2931    2928       1    2937    2931
    2928       1    2937    2931    2934       1    2940    2931    2928      35
    2940    2931    2934      35    2940    2931    2937      35    2943    2940
    2931      36    2952    2949    2946       1    2955    2949    2946       1
    2955    2949    2952       1    2958    2949    2946      35    2958    2949
    2952      35    2958    2949    2955      35    2961    2958    2949      36
    2970    2967    2964       1    2973    2967    2964       1    2973    2967
    2970       1    2976    2967    2964      35    2976    2967    2970      35
    2976    2967    2973      35    2979    2976    2967      36    2988    2985
    2982       1    2991    2985    2982       1    2991    2985    2988       1
    2994    2985    2982      35    2994    2985    2988      35    2994    2985
    2991      35    2997    2994    2985      36    3006    3003    3000       1
    3009    3003    3000       1    3009    3003    3006       1    3012    3003
    3000      35    3012    3003    3006      35    3012    3003    3009      35
    3015    3012    3003      36    3024    3021    3018       1    3027    3021
    3018       1    3027    3021    3024       1    3030    3021    3018      35
    3030    3021    3024      35    3030    3021    3027      35    3033    3030
    3021      36    3042    3039    3036       1    3045    3039    3036       1
    3045    3039    3042       1    3048    3039    3036      35    3048    3039
    3042      35    3048    3039    3045      35    3051    3048    3039      36
    3060    3057    3054       1    3063    3057    3054       1    3063    3057
    3060       1    3066    3057    3054      35    3066    3057    3060      35
    3066    3057    3063      35    3069    3066    3057      36    3078    3075
    3072       1    3081    3075    3072       1    3081    3075    3078       1
    3084    3075    3072      35    3084    3075    3078      35    3084    3075
    3081      35    3087    3084    3075      36    3096    3093    3090       1
    3099    3093    3090       1    3099    3093    3096       1    3102    3093
    3090      35    3102    3093    3096      35    3102    3093    3099      35
    3105    3102    3093      36    3114    3111    3108       1    3117    3111
    3108       1    3117    3111    3114       1    3120    3111    3108      35
    3120    3111    3114      35    3120    3111    3117      35    3123    3120
    3111      36    3132    3129    3126       1    3135    3129    3126       1
    3135    3129    3132       1    3138    3129    3126      35    3138    3129
    3132      35    3138    3129    3135      35    3141    3138    3129      36
    3150    3147    3144       1    3153    3147    3144       1    3153    3147
    3150       1    3156    3147    3144      35    3156    3147    3150      35
    3156    3147    3153      35    3159    3156    3147      36    3168    3165
    3162       1    3171    3165    3162       1    3171    3165    3168       1
    3174    3165    3162      35    3174    3165    3168      35    3174    3165
    3171      35    3177    3174    3165      36    3186    3183    3180       1
    3189    3183    3180       1    3189    3183    3186       1    3192    3183
    3180      35    3192    3183    3186      35    3192    3183    3189      35
    3195    3192    3183      36    3204    3201    3198       1    3207    3201
    3198       1    3207    3201    3204       1    3210    3201    3198      35
    3210    3201    3204      35    3210    3201    3207      35    3213    3210
    3201      36    3222    3219    3216       1    3225    3219    3216       1
    3225    3219    3222       1    3228    3219    3216      35    3228    3219
    3222      35    3228    3219    3225      35    3231    3228    3219      36
    3240    3237    3234       1    3243    3237    3234       1    3243    3237
    3240       1    3246    3237    3234      35    3246    3237    3240      35
    3246    3237    3243      35    3249    3246    3237      36    3258    3255
    3252       1    3261    3255    3252       1    3261    3255    3258       1
    3264    3255    3252      35    3264    3255    3258      35    3264    3255
    3261      35    3267    3264    3255      36    3276    3273    3270       1
    3279    3273    3270       1    3279    3273    3276       1    3282    3273
    3270      35    3282    3273    3276      35    3282    3273    3279      35
    3285    3282    3273      36    3294    3291    3288       1    3297    3291
    3288       1    3297    3291    3294       1    3300    3291    3288      35
    3300    3291    3294      35    3300    3291    3297      35    3303    3300
    3291      36    3312    3309    3306       1    3315    3309    3306       1
    3315    3309    3312       1    3318    3309    3306      35    3318    3309
    3312      35    3318    3309    3315      35    3321    3318    3309      36
    3330    3327    3324       1    3333    3327    3324       1    3333    3327
    3330       1    3336    3327    3324      35    3336    3327    3330      35
    3336    3327    3333      35    3339    3336    3327      36    3348    3345
    3342       1    3351    3345    3342       1    3351    3345    3348       1
    3354    3345    3342      35    3354    3345    3348      35    3354    3345
    3351      35    3357    3354    3345      36    3366    3363    3360       1
    3369    3363    3360       1    3369    3363    3366       1    3372    3363
    3360      35    3372    3363    3366      35    3372    3363    3369      35
    3375    3372    3363      36    3384    3381    3378       1    3387    3381
    3378       1    3387    3381    3384       1    3390    3381    3378      35
    3390    3381    3384      35    3390    3381    3387      35    3393    3390
    3381      36    3402    3399    3396       1    3405    3399    3396       1
    3405    3399    3402       1    3408    3399    3396      35    3408    3399
    3402      35    3408    3399    3405      35    3411    3408    3399      36
    3420    3417    3414       1    3423    3417    3414       1    3423    3417
    3420       1    3426    3417    3414      35    3426    3417    3420      35
    3426    3417    3423      35    3429    3426    3417      36    3438    3435
    3432       1    3441    3435    3432       1    3441    3435    3438       1
    3444    3435    3432      35    3444    3435    3438      35    3444    3435
    3441      35    3447    3444    3435      36    3456    3453    3450       1
    3459    3453    3450       1    3459    3453    3456       1    3462    3453
    3450      35    3462    3453    3456      35    3462    3453    3459      35
    3465    3462    3453      36    3474    3471    3468       1    3477    3471
    3468       1    3477    3471    3474       1    3480    3471    3468      35
    3480    3471    3474      35    3480    3471    3477      35    3483    3480
    3471      36    3492    3489    3486       1    3495    3489    3486       1
    3495    3489    3492       1    3498    3489    3486      35    3498    3489
    3492      35    3498    3489    3495      35    3501    3498    3489      36
    3510    3507    3504       1    3513    3507    3504       1    3513    3507
    3510       1    3516    3507    3504      35    3516    3507    3510      35
    3516    3507    3513      35    3519    3516    3507      36    3528    3525
    3522       1    3531    3525    3522       1    3531    3525    3528       1
    3534    3525    3522      35    3534    3525    3528      35    3534    3525
    3531      35    3537    3534    3525      36    3546    3543    3540       1
    3549    3543    3540       1    3549    3543    3546       1    3552    3543
    3540      35    3552    3543    3546      35    3552    3543    3549      35
    3555    3552    3543      36    3564    3561    3558       1    3567    3561
    3558       1    3567    3561    3564       1    3570    3561    3558      35
    3570    3561    3564      35    3570    3561    3567      35    3573    3570
    3561      36    3582    3579    3576       1    3585    3579    3576       1
    3585    3579    3582       1    3588    3579    3576      35    3588    3579
    3582      35    3588    3579    3585      35    3591    3588    3579      36
    3600    3597    3594       1    3603    3597    3594       1    3603    3597
    3600       1    3606    3597    3594      35    3606    3597    3600      35
    3606    3597    3603      35    3609    3606    3597      36    3618    3615
    3612       1    3621    3615    3612       1    3621    3615    3618       1
    3624    3615    3612      35    3624    3615    3618      35    3624    3615
    3621      35    3627    3624    3615      36    3636    3633    3630       1
    3639    3633    3630       1    3639    3633    3636       1    3642    3633
    3630      35    3642    3633    3636      35    3642    3633    3639      35
    3645    3642    3633      36    3654    3651    3648       1    3657    3651
    3648       1    3657    3651    3654       1    3660    3651    3648      35
    3660    3651    3654      35    3660    3651    3657      35    3663    3660
    3651      36    3672    3669    3666       1    3675    3669    3666       1
    3675    3669    3672       1    3678    3669    3666      35    3678    3669
    3672      35    3678    3669    3675      35    3681    3678    3669      36
    3690    3687    3684       1    3693    3687    3684       1    3693    3687
    3690       1    3696    3687    3684      35    3696    3687    3690      35
    3696    3687    3693      35    3699    3696    3687      36    3708    3705
    3702       1    3711    3705    3702       1    3711    3705    3708       1
    3714    3705    3702      35    3714    3705    3708      35    3714    3705
    3711      35    3717    3714    3705      36    3726    3723    3720       1
    3729    3723    3720       1    3729    3723    3726       1    3732    3723
    3720      35    3732    3723    3726      35    3732    3723    3729      35
    3735    3732    3723      36    3744    3741    3738       1    3747    3741
    3738       1    3747    3741    3744       1    3750    3741    3738      35
    3750    3741    3744      35    3750    3741    3747      35    3753    3750
    3741      36    3762    3759    3756       1    3765    3759    3756       1
    3765    3759    3762       1    3768    3759    3756      35    3768    3759
    3762      35    3768    3759    3765      35    3771    3768    3759      36
    3780    3777    3774       1    3783    3777    3774       1    3783    3777
    3780       1    3786    3777    3774      35    3786    3777    3780      35
    3786    3777    3783      35    3789    3786    3777      36    3798    3795
    3792       1    3801    3795    3792       1    3801    3795    3798       1
    3804    3795    3792      35    3804    3795    3798      35    3804    3795
    3801      35    3807    3804    3795      36    3816    3813    3810       1
    3819    3813    3810       1    3819    3813    3816       1    3822    3813
    3810      35    3822    3813    3816      35    3822    3813    3819      35
    3825    3822    3813      36    3834    3831    3828       1    3837    3831
    3828       1    3837    3831    3834       1    3840    3831    3828      35
    3840    3831    3834      35    3840    3831    3837      35    3843    3840
    3831      36    3852    3849    3846       1    3855    3849    3846       1
    3855    3849    3852       1    3858    3849    3846      35    3858    3849
    3852      35    3858    3849    3855      35    3861    3858    3849      36
    3870    3867    3864       1    3873    3867    3864       1    3873    3867
    3870       1    3876    3867    3864      35    3876    3867    3870      35
    3876    3867    3873      35    3879    3876    3867      36    3888    3885
    3882       1    3891    3885    3882       1    3891    3885    3888       1
    3894    3885    3882      35    3894    3885    3888      35    3894    3885
    3891      35    3897    3894    3885      36    3906    3903    3900       1
    3909    3903    3900       1    3909    3903    3906       1    3912    3903
    3900      35    3912    3903    3906      35    3912    3903    3909      35
    3915    3912    3903      36    3924    3921    3918       1    3927    3921
    3918       1    3927    3921    3924       1    3930    3921    3918      35
    3930    3921    3924      35    3930    3921    3927      35    3933    3930
    3921      36    3942    3939    3936       1    3945    3939    3936       1
    3945    3939    3942       1    3948    3939    3936      35    3948    3939
    3942      35    3948    3939    3945      35    3951    3948    3939      36
    3960    3957    3954       1    3963    3957    3954       1    3963    3957
    3960       1    3966    3957    3954      35    3966    3957    3960      35
    3966    3957    3963      35    3969    3966    3957      36    3978    3975
    3972       1    3981    3975    3972       1    3981    3975    3978       1
    3984    3975    3972      35    3984    3975    3978      35    3984    3975
    3981      35    3987    3984    3975      36    3996    3993    3990       1
    3999    3993    3990       1    3999    3993    3996       1    4002    3993
    3990      35    4002    3993    3996      35    4002    3993    3999      35
    4005    4002    3993      36    4014    4011    4008       1    4017    4011
    4008       1    4017    4011    4014       1    4020    4011    4008      35
    4020    4011    4014      35    4020    4011    4017      35    4023    4020
    4011      36    4032    4029    4026       1    4035    4029    4026       1
    4035    4029    4032       1    4038    4029    4026      35    4038    4029
    4032      35    4038    4029    4035      35    4041    4038    4029      36
    4050    4047    4044       1    4053    4047    4044       1    4053    4047
    4050       1    4056    4047    4044      35    4056    4047    4050      35
    4056    4047    4053      35    4059    4056    4047      36    4068    4065
    4062       1    4071    4065    4062       1    4071    4065    4068       1
    4074    4065    4062      35    4074    4065    4068      35    4074    4065
    4071      35    4077    4074    4065      36    4086    4083    4080       1
    4089    4083    4080       1    4089    4083    4086       1    4092    4083
    4080      35    4092    4083    4086      35    4092    4083    4089      35
    4095    4092    4083      36    4104    4101    4098       1    4107    4101
    4098       1    4107    4101    4104       1    4110    4101    4098      35
    4110    4101    4104      35    4110    4101    4107      35    4113    4110
    4101      36    4122    4119    4116       1    4125    4119    4116       1
    4125    4119    4122       1    4128    4119    4116      35    4128    4119
    4122      35    4128    4119    4125      35    4131    4128    4119      36
    4140    4137    4134       1    4143    4137    4134       1    4143    4137
    4140       1    4146    4137    4134      35    4146    4137    4140      35
    4146    4137    4143      35    4149    4146    4137      36    4158    4155
    4152       1    4161    4155    4152       1    4161    4155    4158       1
    4164    4155    4152      35    4164    4155    4158      35    4164    4155
    4161      35    4167    4164    4155      36    4176    4173    4170       1
    4179    4173    4170       1    4179    4173    4176       1    4182    4173
    4170      35    4182    4173    4176      35    4182    4173    4179      35
    4185    4182    4173      36    4194    4191    4188       1    4197    4191
    4188       1    4197    4191    4194       1    4200    4191    4188      35
    4200    4191    4194      35    4200    4191    4197      35    4203    4200
    4191      36    4212    4209    4206       1    4215    4209    4206       1
    4215    4209    4212       1    4218    4209    4206      35    4218    4209
    4212      35    4218    4209    4215      35    4221    4218    4209      36
    4230    4227    4224       1    4233    4227    4224       1    4233    4227
    4230       1    4236    4227    4224      35    4236    4227    4230      35
    4236    4227    4233      35    4239    4236    4227      36    4248    4245
    4242       1    4251    4245    4242       1    4251    4245    4248       1
    4254    4245    4242      35    4254    4245    4248      35    4254    4245
    4251      35    4257    4254    4245      36    4266    4263    4260       1
    4269    4263    4260       1    4269    4263    4266       1    4272    4263
    4260      35    4272    4263    4266      35    4272    4263    4269      35
    4275    4272    4263      36    4284    4281    4278       1    4287    4281
    4278       1    4287    4281    4284       1    4290    4281    4278      35
    4290    4281    4284      35    4290    4281    4287      35    4293    4290
    4281      36    4302    4299    4296       1    4305    4299    4296       1
    4305    4299    4302       1    4308    4299    4296      35    4308    4299
    4302      35    4308    4299    4305      35    4311    4308    4299      36
    4320    4317    4314       1    4323    4317    4314       1    4323    4317
    4320       1    4326    4317    4314      35    4326    4317    4320      35
    4326    4317    4323      35    4329    4326    4317      36    4338    4335
    4332       1    4341    4335    4332       1    4341    4335    4338       1
    4344    4335    4332      35    4344    4335    4338      35    4344    4335
    4341      35    4347    4344    4335      36    4356    4353    4350       1
    4359    4353    4350       1    4359    4353    4356       1    4362    4353
    4350      35    4362    4353    4356      35    4362    4353    4359      35
    4365    4362    4353      36    4374    4371    4368       1    4377    4371
    4368       1    4377    4371    4374       1    4380    4371    4368      35
    4380    4371    4374      35    4380    4371    4377      35    4383    4380
    4371      36    4392    4389    4386       1    4395    4389    4386       1
    4395    4389    4392       1    4398    4389    4386      35    4398    4389
    4392      35    4398    4389    4395      35    4401    4398    4389      36
    4410    4407    4404       1    4413    4407    4404       1    4413    4407
    4410       1    4416    4407    4404      35    4416    4407    4410      35
    4416    4407    4413      35    4419    4416    4407      36    4428    4425
    4422       1    4431    4425    4422       1    4431    4425    4428       1
    4434    4425    4422      35    4434    4425    4428      35    4434    4425
    4431      35    4437    4434    4425      36    4446    4443    4440       1
    4449    4443    4440       1    4449    4443    4446       1    4452    4443
    4440      35    4452    4443    4446      35    4452    4443    4449      35
    4455    4452    4443      36    4464    4461    4458       1    4467    4461
    4458       1    4467    4461    4464       1    4470    4461    4458      35
    4470    4461    4464      35    4470    4461    4467      35    4473    4470
    4461      36    4482    4479    4476       1    4485    4479    4476       1
    4485    4479    4482       1    4488    4479    4476      35    4488    4479
    4482      35    4488    4479    4485      35    4491    4488    4479      36
    4500    4497    4494       1    4503    4497    4494       1    4503    4497
    4500       1    4506    4497    4494      35    4506    4497    4500      35
    4506    4497    4503      35    4509    4506    4497      36    4518    4515
    4512       1    4521    4515    4512       1    4521    4515    4518       1
    4524    4515    4512      35    4524    4515    4518      35    4524    4515
    4521      35    4527    4524    4515      36    4536    4533    4530       1
    4539    4533    4530       1    4539    4533    4536       1    4542    4533
    4530      35    4542    4533    4536      35    4542    4533    4539      35
    4545    4542    4533      36    4554    4551    4548       1    4557    4551
    4548       1    4557    4551    4554       1    4560    4551    4548      35
    4560    4551    4554      35    4560    4551    4557      35    4563    4560
    4551      36    4572    4569    4566       1    4575    4569    4566       1
    4575    4569    4572       1    4578    4569    4566      35    4578    4569
    4572      35    4578    4569    4575      35    4581    4578    4569      36
    4590    4587    4584       1    4593    4587    4584       1    4593    4587
    4590       1    4596    4587    4584      35    4596    4587    4590      35
    4596    4587    4593      35    4599    4596    4587      36    4608    4605
    4602       1    4611    4605    4602       1    4611    4605    4608       1
    4614    4605    4602      35    4614    4605    4608      35    4614    4605
    4611      35    4617    4614    4605      36    4626    4623    4620       1
    4629    4623    4620       1    4629    4623    4626       1    4632    4623
    4620      35    4632    4623    4626      35    4632    4623    4629      35
    4635    4632    4623      36    4644    4641    4638       1    4647    4641
    4638       1    4647    4641    4644       1    4650    4641    4638      35
    4650    4641    4644      35    4650    4641    4647      35    4653    4650
    4641      36    4662    4659    4656       1    4665    4659    4656       1
    4665    4659    4662       1    4668    4659    4656      35    4668    4659
    4662      35    4668    4659    4665      35    4671    4668    4659      36
    4680    4677    4674       1    4683    4677    4674       1    4683    4677
    4680       1    4686    4677    4674      35    4686    4677    4680      35
    4686    4677    4683      35    4689    4686    4677      36    4698    4695
    4692       1    4701    4695    4692       1    4701    4695    4698       1
    4704    4695    4692      35    4704    4695    4698      35    4704    4695
    4701      35    4707    4704    4695      36    4716    4713    4710       1
    4719    4713    4710       1    4719    4713    4716       1    4722    4713
    4710      35    4722    4713    4716      35    4722    4713    4719      35
    4725    4722    4713      36    4734    4731    4728       1    4737    4731
    4728       1    4737    4731    4734       1    4740    4731    4728      35
    4740    4731    4734      35    4740    4731    4737      35    4743    4740
    4731      36    4752    4749    4746       1    4755    4749    4746       1
    4755    4749    4752       1    4758    4749    4746      35    4758    4749
    4752      35    4758    4749    4755      35    4761    4758    4749      36
    4770    4767    4764       1    4773    4767    4764       1    4773    4767
    4770       1    4776    4767    4764      35    4776    4767    4770      35
    4776    4767    4773      35    4779    4776    4767      36    4788    4785
    4782       1    4791    4785    4782       1    4791    4785    4788       1
    4794    4785    4782      35    4794    4785    4788      35    4794    4785
    4791      35    4797    4794    4785      36    4806    4803    4800       1
    4809    4803    4800       1    4809    4803    4806       1    4812    4803
    4800      35    4812    4803    4806      35    4812    4803    4809      35
    4815    4812    4803      36    4824    4821    4818       1    4827    4821
    4818       1    4827    4821    4824       1    4830    4821    4818      35
    4830    4821    4824      35    4830    4821    4827      35    4833    4830
    4821      36    4842    4839    4836       1    4845    4839    4836       1
    4845    4839    4842       1    4848    4839    4836      35    4848    4839
    4842      35    4848    4839    4845      35    4851    4848    4839      36
    4860    4857    4854       1    4863    4857    4854       1    4863    4857
    4860       1    4866    4857    4854      35    4866    4857    4860      35
    4866    4857    4863      35    4869    4866    4857      36    4878    4875
    4872       1    4881    4875    4872       1    4881    4875    4878       1
    4884    4875    4872      35    4884    4875    4878      35    4884    4875
    4881      35    4887    4884    4875      36    4896    4893    4890       1
    4899    4893    4890       1    4899    4893    4896       1    4902    4893
    4890      35    4902    4893    4896      35    4902    4893    4899      35
    4905    4902    4893      36    4914    4911    4908       1    4917    4911
    4908       1    4917    4911    4914       1    4920    4911    4908      35
    4920    4911    4914      35    4920    4911    4917      35    4923    4920
    4911      36    4932    4929    4926       1    4935    4929    4926       1
    4935    4929    4932       1    4938    4929    4926      35    4938    4929
    4932      35    4938    4929    4935      35    4941    4938    4929      36
    4950    4947    4944       1    4953    4947    4944       1    4953    4947
    4950       1    4956    4947    4944      35    4956    4947    4950      35
    4956    4947    4953      35    4959    4956    4947      36    4968    4965
    4962       1    4971    4965    4962       1    4971    4965    4968       1
    4974    4965    4962      35    4974    4965    4968      35    4974    4965
    4971      35    4977    4974    4965      36    4986    4983    4980       1
    4989    4983    4980       1    4989    4983    4986       1    4992    4983
    4980      35    4992    4983    4986      35    4992    4983    4989      35
    4995    4992    4983      36    5004    5001    4998       1    5007    5001
    4998       1    5007    5001    5004       1    5010    5001    4998      35
    5010    5001    5004      35    5010    5001    5007      35    5013    5010
    5001      36    5022    5019    5016       1    5025    5019    5016       1
    5025    5019    5022       1    5028    5019    5016      35    5028    5019
    5022      35    5028    5019    5025      35    5031    5028    5019      36
    5040    5037    5034       1    5043    5037    5034       1    5043    5037
    5040       1    5046    5037    5034      35    5046    5037    5040      35
    5046    5037    5043      35    5049    5046    5037      36    5058    5055
    5052       1    5061    5055    5052       1    5061    5055    5058       1
    5064    5055    5052      35    5064    5055    5058      35    5064    5055
    5061      35    5067    5064    5055      36    5076    5073    5070       1
    5079    5073    5070       1    5079    5073    5076       1    5082    5073
    5070      35    5082    5073    5076      35    5082    5073    5079      35
    5085    5082    5073      36    5094    5091    5088       1    5097    5091
    5088       1    5097    5091    5094       1    5100    5091    5088      35
    5100    5091    5094      35    5100    5091    5097      35    5103    5100
    5091      36    5112    5109    5106       1    5115    5109    5106       1
    5115    5109    5112       1    5118    5109    5106      35    5118    5109
    5112      35    5118    5109    5115      35    5121    5118    5109      36
    5130    5127    5124       1    5133    5127    5124       1    5133    5127
    5130       1    5136    5127    5124      35    5136    5127    5130      35
    5136    5127    5133      35    5139    5136    5127      36    5148    5145
    5142       1    5151    5145    5142       1    5151    5145    5148       1
    5154    5145    5142      35    5154    5145    5148      35    5154    5145
    5151      35    5157    5154    5145      36    5166    5163    5160       1
    5169    5163    5160       1    5169    5163    5166       1    5172    5163
    5160      35    5172    5163    5166      35    5172    5163    5169      35
    5175    5172    5163      36    5184    5181    5178       1    5187    5181
    5178       1    5187    5181    5184       1    5190    5181    5178      35
    5190    5181    5184      35    5190    5181    5187      35    5193    5190
    5181      36    5202    5199    5196       1    5205    5199    5196       1
    5205    5199    5202       1    5208    5199    5196      35    5208    5199
    5202      35    5208    5199    5205      35    5211    5208    5199      36
    5220    5217    5214       1    5223    5217    5214       1    5223    5217
    5220       1    5226    5217    5214      35    5226    5217    5220      35
    5226    5217    5223      35    5229    5226    5217      36    5238    5235
    5232       1    5241    5235    5232       1    5241    5235    5238       1
    5244    5235    5232      35    5244    5235    5238      35    5244    5235
    5241      35    5247    5244    5235      36    5256    5253    5250       1
    5259    5253    5250       1    5259    5253    5256       1    5262    5253
    5250      35    5262    5253    5256      35    5262    5253    5259      35
    5265    5262    5253      36    5274    5271    5268       1    5277    5271
    5268       1    5277    5271    5274       1    5280    5271    5268      35
    5280    5271    5274      35    5280    5271    5277      35    5283    5280
    5271      36    5292    5289    5286       1    5295    5289    5286       1
    5295    5289    5292       1    5298    5289    5286      35    5298    5289
    5292      35    5298    5289    5295      35    5301    5298    5289      36
    5310    5307    5304       1    5313    5307    5304       1    5313    5307
    5310       1    5316    5307    5304      35    5316    5307    5310      35
    5316    5307    5313      35    5319    5316    5307      36    5328    5325
    5322       1    5331    5325    5322       1    5331    5325    5328       1
    5334    5325    5322      35    5334    5325    5328      35    5334    5325
    5331      35    5337    5334    5325      36    5346    5343    5340       1
    5349    5343    5340       1    5349    5343    5346       1    5352    5343
    5340      35    5352    5343    5346      35    5352    5343    5349      35
    5355    5352    5343      36    5364    5361    5358       1    5367    5361
    5358       1    5367    5361    5364       1    5370    5361    5358      35
    5370    5361    5364      35    5370    5361    5367      35    5373    5370
    5361      36    5382    5379    5376       1    5385    5379    5376       1
    5385    5379    5382       1    5388    5379    5376      35    5388    5379
    5382      35    5388    5379    5385      35    5391    5388    5379      36
    5400    5397    5394       1    5403    5397    5394       1    5403    5397
    5400       1    5406    5397    5394      35    5406    5397    5400      35
    5406    5397    5403      35    5409    5406    5397      36    5418    5415
    5412       1    5421    5415    5412       1    5421    5415    5418       1
    5424    5415    5412      35    5424    5415    5418      35    5424    5415
    5421      35    5427    5424    5415      36    5436    5433    5430       1
    5439    5433    5430       1    5439    5433    5436       1    5442    5433
    5430      35    5442    5433    5436      35    5442    5433    5439      35
    5445    5442    5433      36    5454    5451    5448       1    5457    5451
    5448       1    5457    5451    5454       1    5460    5451    5448      35
    5460    5451    5454      35    5460    5451    5457      35    5463    5460
    5451      36    5472    5469    5466       1    5475    5469    5466       1
    5475    5469    5472       1    5478    5469    5466      35    5478    5469
    5472      35    5478    5469    5475      35    5481    5478    5469      36
    5490    5487    5484       1    5493    5487    5484       1    5493    5487
    5490       1    5496    5487    5484      35    5496    5487    5490      35
    5496    5487    5493      35    5499    5496    5487      36    5508    5505
    5502       1    5511    5505    5502       1    5511    5505    5508       1
    5514    5505    5502      35    5514    5505    5508      35    5514    5505
    5511      35    5517    5514    5505      36    5526    5523    5520       1
    5529    5523    5520       1    5529    5523    5526       1    5532    5523
    5520      35    5532    5523    5526      35    5532    5523    5529      35
    5535    5532    5523      36    5544    5541    5538       1    5547    5541
    5538       1    5547    5541    5544       1    5550    5541    5538      35
    5550    5541    5544      35    5550    5541    5547      35    5553    5550
    5541      36    5562    5559    5556       1    5565    5559    5556       1
    5565    5559    5562       1    5568    5559    5556      35    5568    5559
    5562      35    5568    5559    5565      35    5571    5568    5559      36
    5580    5577    5574       1    5583    5577    5574       1    5583    5577
    5580       1    5586    5577    5574      35    5586    5577    5580      35
    5586    5577    5583      35    5589    5586    5577      36    5598    5595
    5592       1    5601    5595    5592       1    5601    5595    5598       1
    5604    5595    5592      35    5604    5595    5598      35    5604    5595
    5601      35    5607    5604    5595      36    5616    5613    5610       1
    5619    5613    5610       1    5619    5613    5616       1    5622    5613
    5610      35    5622    5613    5616      35    5622    5613    5619      35
    5625    5622    5613      36    5634    5631    5628       1    5637    5631
    5628       1    5637    5631    5634       1    5640    5631    5628      35
    5640    5631    5634      35    5640    5631    5637      35    5643    5640
    5631      36    5652    5649    5646       1    5655    5649    5646       1
    5655    5649    5652       1    5658    5649    5646      35    5658    5649
    5652      35    5658    5649    5655      35    5661    5658    5649      36
    5670    5667    5664       1    5673    5667    5664       1    5673    5667
    5670       1    5676    5667    5664      35    5676    5667    5670      35
    5676    5667    5673      35    5679    5676    5667      36    5688    5685
    5682       1    5691    5685    5682       1    5691    5685    5688       1
    5694    5685    5682      35    5694    5685    5688      35    5694    5685
    5691      35    5697    5694    5685      36    5706    5703    5700       1
    5709    5703    5700       1    5709    5703    5706       1    5712    5703
    5700      35    5712    5703    5706      35    5712    5703    5709      35
    5715    5712    5703      36    5724    5721    5718       1    5727    5721
    5718       1    5727    5721    5724       1    5730    5721    5718      35
    5730    5721    5724      35    5730    5721    5727      35    5733    5730
    5721      36    5742    5739    5736       1    5745    5739    5736       1
    5745    5739    5742       1    5748    5739    5736      35    5748    5739
    5742      35    5748    5739    5745      35    5751    5748    5739      36
    5760    5757    5754       1    5763    5757    5754       1    5763    5757
    5760       1    5766    5757    5754      35    5766    5757    5760      35
    5766    5757    5763      35    5769    5766    5757      36    5778    5775
    5772       1    5781    5775    5772       1    5781    5775    5778       1
    5784    5775    5772      35    5784    5775    5778      35    5784    5775
    5781      35    5787    5784    5775      36    5796    5793    5790       1
    5799    5793    5790       1    5799    5793    5796       1    5802    5793
    5790      35    5802    5793    5796      35    5802    5793    5799      35
    5805    5802    5793      36    5814    5811    5808       1    5817    5811
    5808       1    5817    5811    5814       1    5820    5811    5808      35
    5820    5811    5814      35    5820    5811    5817      35    5823    5820
    5811      36    5832    5829    5826       1    5835    5829    5826       1
    5835    5829    5832       1    5838    5829    5826      35    5838    5829
    5832      35    5838    5829    5835      35    5841    5838    5829      36
    5850    5847    5844       1    5853    5847    5844       1    5853    5847
    5850       1    5856    5847    5844      35    5856    5847    5850      35
    5856    5847    5853      35    5859    5856    5847      36    5868    5865
    5862       1    5871    5865    5862       1    5871    5865    5868       1
    5874    5865    5862      35    5874    5865    5868      35    5874    5865
    5871      35    5877    5874    5865      36    5886    5883    5880       1
    5889    5883    5880       1    5889    5883    5886       1    5892    5883
    5880      35    5892    5883    5886      35    5892    5883    5889      35
    5895    5892    5883      36    5904    5901    5898       1    5907    5901
    5898       1    5907    5901    5904       1    5910    5901    5898      35
    5910    5901    5904      35    5910    5901    5907      35    5913    5910
    5901      36    5922    5919    5916       1    5925    5919    5916       1
    5925    5919    5922       1    5928    5919    5916      35    5928    5919
    5922      35    5928    5919    5925      35    5931    5928    5919      36
    5940    5937    5934       1    5943    5937    5934       1    5943    5937
    5940       1    5946    5937    5934      35    5946    5937    5940      35
    5946    5937    5943      35    5949    5946    5937      36    5958    5955
    5952       1    5961    5955    5952       1    5961    5955    5958       1
    5964    5955    5952      35    5964    5955    5958      35    5964    5955
    5961      35    5967    5964    5955      36    5976    5973    5970       1
    5979    5973    5970       1    5979    5973    5976       1    5982    5973
    5970      35    5982    5973    5976      35    5982    5973    5979      35
    5985    5982    5973      36    5994    5991    5988       1    5997    5991
    5988       1    5997    5991    5994       1    6000    5991    5988      35
    6000    5991    5994      35    6000    5991    5997      35    6003    6000
    5991      36    6012    6009    6006       1    6015    6009    6006       1
    6015    6009    6012       1    6018    6009    6006      35    6018    6009
    6012      35    6018    6009    6015      35    6021    6018    6009      36
    6030    6027    6024       1    6033    6027    6024       1    6033    6027
    6030       1    6036    6027    6024      35    6036    6027    6030      35
    6036    6027    6033      35    6039    6036    6027      36    6048    6045
    6042       1    6051    6045    6042       1    6051    6045    6048       1
    6054    6045    6042      35    6054    6045    6048      35    6054    6045
    6051      35    6057    6054    6045      36    6066    6063    6060       1
    6069    6063    6060       1    6069    6063    6066       1    6072    6063
    6060      35    6072    6063    6066      35    6072    6063    6069      35
    6075    6072    6063      36    6084    6081    6078       1    6087    6081
    6078       1    6087    6081    6084       1    6090    6081    6078      35
    6090    6081    6084      35    6090    6081    6087      35    6093    6090
    6081      36    6102    6099    6096       1    6105    6099    6096       1
    6105    6099    6102       1    6108    6099    6096      35    6108    6099
    6102      35    6108    6099    6105      35    6111    6108    6099      36
    6120    6117    6114       1    6123    6117    6114       1    6123    6117
    6120       1    6126    6117    6114      35    6126    6117    6120      35
    6126    6117    6123      35    6129    6126    6117      36    6138    6135
    6132       1    6141    6135    6132       1    6141    6135    6138       1
    6144    6135    6132      35    6144    6135    6138      35    6144    6135
    6141      35    6147    6144    6135      36    6156    6153    6150       1
    6159    6153    6150       1    6159    6153    6156       1    6162    6153
    6150      35    6162    6153    6156      35    6162    6153    6159      35
    6165    6162    6153      36    6174    6171    6168       1    6177    6171
    6168       1    6177    6171    6174       1    6180    6171    6168      35
    6180    6171    6174      35    6180    6171    6177      35    6183    6180
    6171      36    6192    6189    6186       1    6195    6189    6186       1
    6195    6189    6192       1    6198    6189    6186      35    6198    6189
    6192      35    6198    6189    6195      35    6201    6198    6189      36
    6210    6207    6204       1    6213    6207    6204       1    6213    6207
    6210       1    6216    6207    6204      35    6216    6207    6210      35
    6216    6207    6213      35    6219    6216    6207      36    6228    6225
    6222       1    6231    6225    6222       1    6231    6225    6228       1
    6234    6225    6222      35    6234    6225    6228      35    6234    6225
    6231      35    6237    6234    6225      36    6246    6243    6240       1
    6249    6243    6240       1    6249    6243    6246       1    6252    6243
    6240      35    6252    6243    6246      35    6252    6243    6249      35
    6255    6252    6243      36    6264    6261    6258       1    6267    6261
    6258       1    6267    6261    6264       1    6270    6261    6258      35
    6270    6261    6264      35    6270    6261    6267      35    6273    6270
    6261      36    6282    6279    6276       1    6285    6279    6276       1
    6285    6279    6282       1    6288    6279    6276      35    6288    6279
    6282      35    6288    6279    6285      35    6291    6288    6279      36
    6300    6297    6294       1    6303    6297    6294       1    6303    6297
    6300       1    6306    6297    6294      35    6306    6297    6300      35
    6306    6297    6303      35    6309    6306    6297      36    6318    6315
    6312       1    6321    6315    6312       1    6321    6315    6318       1
    6324    6315    6312      35    6324    6315    6318      35    6324    6315
    6321      35    6327    6324    6315      36    6336    6333    6330       1
    6339    6333    6330       1    6339    6333    6336       1    6342    6333
    6330      35    6342    6333    6336      35    6342    6333    6339      35
    6345    6342    6333      36    6354    6351    6348       1    6357    6351
    6348       1    6357    6351    6354       1    6360    6351    6348      35
    6360    6351    6354      35    6360    6351    6357      35    6363    6360
    6351      36    6372    6369    6366       1    6375    6369    6366       1
    6375    6369    6372       1    6378    6369    6366      35    6378    6369
    6372      35    6378    6369    6375      35    6381    6378    6369      36
    6390    6387    6384       1    6393    6387    6384       1    6393    6387
    6390       1    6396    6387    6384      35    6396    6387    6390      35
    6396    6387    6393      35    6399    6396    6387      36    6408    6405
    6402       1    6411    6405    6402       1    6411    6405    6408       1
    6414    6405    6402      35    6414    6405    6408      35    6414    6405
    6411      35    6417    6414    6405      36    6426    6423    6420       1
    6429    6423    6420       1    6429    6423    6426       1    6432    6423
    6420      35    6432    6423    6426      35    6432    6423    6429      35
    6435    6432    6423      36    6444    6441    6438       1    6447    6441
    6438       1    6447    6441    6444       1    6450    6441    6438      35
    6450    6441    6444      35    6450    6441    6447      35    6453    6450
    6441      36    6462    6459    6456       1    6465    6459    6456       1
    6465    6459    6462       1    6468    6459    6456      35    6468    6459
    6462      35    6468    6459    6465      35    6471    6468    6459      36
    6480    6477    6474       1    6483    6477    6474       1    6483    6477
    6480       1    6486    6477    6474      35    6486    6477    6480      35
    6486    6477    6483      35    6489    6486    6477      36    6498    6495
    6492       1    6501    6495    6492       1    6501    6495    6498       1
    6504    6495    6492      35    6504    6495    6498      35    6504    6495
    6501      35    6507    6504    6495      36    6516    6513    6510       1
    6519    6513    6510       1    6519    6513    6516       1    6522    6513
    6510      35    6522    6513    6516      35    6522    6513    6519      35
    6525    6522    6513      36    6534    6531    6528       1    6537    6531
    6528       1    6537    6531    6534       1    6540    6531    6528      35
    6540    6531    6534      35    6540    6531    6537      35    6543    6540
    6531      36    6552    6549    6546       1    6555    6549    6546       1
    6555    6549    6552       1    6558    6549    6546      35    6558    6549
    6552      35    6558    6549    6555      35    6561    6558    6549      36
    6570    6567    6564       1    6573    6567    6564       1    6573    6567
    6570       1    6576    6567    6564      35    6576    6567    6570      35
    6576    6567    6573      35    6579    6576    6567      36    6588    6585
    6582       1    6591    6585    6582       1    6591    6585    6588       1
    6594    6585    6582      35    6594    6585    6588      35    6594    6585
    6591      35    6597    6594    6585      36    6606    6603    6600       1
    6609    6603    6600       1    6609    6603    6606       1    6612    6603
    6600      35    6612    6603    6606      35    6612    6603    6609      35
    6615    6612    6603      36    6624    6621    6618       1    6627    6621
    6618       1    6627    6621    6624       1    6630    6621    6618      35
    6630    6621    6624      35    6630    6621    6627      35    6633    6630
    6621      36    6642    6639    6636       1    6645    6639    6636       1
    6645    6639    6642       1    6648    6639    6636      35    6648    6639
    6642      35    6648    6639    6645      35    6651    6648    6639      36
    6660    6657    6654       1    6663    6657    6654       1    6663    6657
    6660       1    6666    6657    6654      35    6666    6657    6660      35
    6666    6657    6663      35    6669    6666    6657      36    6678    6675
    6672       1    6681    6675    6672       1    6681    6675    6678       1
    6684    6675    6672      35    6684    6675    6678      35    6684    6675
    6681      35    6687    6684    6675      36    6696    6693    6690       1
    6699    6693    6690       1    6699    6693    6696       1    6702    6693
    6690      35    6702    6693    6696      35    6702    6693    6699      35
    6705    6702    6693      36    6714    6711    6708       1    6717    6711
    6708       1    6717    6711    6714       1    6720    6711    6708      35
    6720    6711    6714      35    6720    6711    6717      35    6723    6720
    6711      36    6732    6729    6726       1    6735    6729    6726       1
    6735    6729    6732       1    6738    6729    6726      35    6738    6729
    6732      35    6738    6729    6735      35    6741    6738    6729      36
    6750    6747    6744       1    6753    6747    6744       1    6753    6747
    6750       1    6756    6747    6744      35    6756    6747    6750      35
    6756    6747    6753      35    6759    6756    6747      36    6768    6765
    6762       1    6771    6765    6762       1    6771    6765    6768       1
    6774    6765    6762      35    6774    6765    6768      35    6774    6765
    6771      35    6777    6774    6765      36    6786    6783    6780       1
    6789    6783    6780       1    6789    6783    6786       1    6792    6783
    6780      35    6792    6783    6786      35    6792    6783    6789      35
    6795    6792    6783      36    6804    6801    6798       1    6807    6801
    6798       1    6807    6801    6804       1    6810    6801    6798      35
    6810    6801    6804      35    6810    6801    6807      35    6813    6810
    6801      36    6822    6819    6816       1    6825    6819    6816       1
    6825    6819    6822       1    6828    6819    6816      35    6828    6819
    6822      35    6828    6819    6825      35    6831    6828    6819      36
    6840    6837    6834       1    6843    6837    6834       1    6843    6837
    6840       1    6846    6837    6834      35    6846    6837    6840      35
    6846    6837    6843      35    6849    6846    6837      36    6858    6855
    6852       1    6861    6855    6852       1    6861    6855    6858       1
    6864    6855    6852      35    6864    6855    6858      35    6864    6855
    6861      35    6867    6864    6855      36    6876    6873    6870       1
    6879    6873    6870       1    6879    6873    6876       1    6882    6873
    6870      35    6882    6873    6876      35    6882    6873    6879      35
    6885    6882    6873      36    6894    6891    6888       1    6897    6891
    6888       1    6897    6891    6894       1    6900    6891    6888      35
    6900    6891    6894      35    6900    6891    6897      35    6903    6900
    6891      36    6912    6909    6906       1    6915    6909    6906       1
    6915    6909    6912       1    6918    6909    6906      35    6918    6909
    6912      35    6918    6909    6915      35    6921    6918    6909      36
    6930    6927    6924       1    6933    6927    6924       1    6933    6927
    6930       1    6936    6927    6924      35    6936    6927    6930      35
    6936    6927    6933      35    6939    6936    6927      36    6948    6945
    6942       1    6951    6945    6942       1    6951    6945    6948       1
    6954    6945    6942      35    6954    6945    6948      35    6954    6945
    6951      35    6957    6954    6945      36    6966    6963    6960       1
    6969    6963    6960       1    6969    6963    6966       1    6972    6963
    6960      35    6972    6963    6966      35    6972    6963    6969      35
    6975    6972    6963      36    6984    6981    6978       1    6987    6981
    6978       1    6987    6981    6984       1    6990    6981    6978      35
    6990    6981    6984      35    6990    6981    6987      35    6993    6990
    6981      36    7002    6999    6996       1    7005    6999    6996       1
    7005    6999    7002       1    7008    6999    6996      35    7008    6999
    7002      35    7008    6999    7005      35    7011    7008    6999      36
    7020    7017    7014       1    7023    7017    7014       1    7023    7017
    7020       1    7026    7017    7014      35    7026    7017    7020      35
    7026    7017    7023      35    7029    7026    7017      36    7038    7035
    7032       1    7041    7035    7032       1    7041    7035    7038       1
    7044    7035    7032      35    7044    7035    7038      35    7044    7035
    7041      35    7047    7044    7035      36    7056    7053    7050       1
    7059    7053    7050       1    7059    7053    7056       1    7062    7053
    7050      35    7062    7053    7056      35    7062    7053    7059      35
    7065    7062    7053      36    7074    7071    7068       1    7077    7071
    7068       1    7077    7071    7074       1    7080    7071    7068      35
    7080    7071    7074      35    7080    7071    7077      35    7083    7080
    7071      36    7092    7089    7086       1    7095    7089    7086       1
    7095    7089    7092       1    7098    7089    7086      35    7098    7089
    7092      35    7098    7089    7095      35    7101    7098    7089      36
    7110    7107    7104       1    7113    7107    7104       1    7113    7107
    7110       1    7116    7107    7104      35    7116    7107    7110      35
    7116    7107    7113      35    7119    7116    7107      36    7128    7125
    7122       1    7131    7125    7122       1    7131    7125    7128       1
    7134    7125    7122      35    7134    7125    7128      35    7134    7125
    7131      35    7137    7134    7125      36    7146    7143    7140       1
    7149    7143    7140       1    7149    7143    7146       1    7152    7143
    7140      35    7152    7143    7146      35    7152    7143    7149      35
    7155    7152    7143      36    7164    7161    7158       1    7167    7161
    7158       1    7167    7161    7164       1    7170    7161    7158      35
    7170    7161    7164      35    7170    7161    7167      35    7173    7170
    7161      36    7182    7179    7176       1    7185    7179    7176       1
    7185    7179    7182       1    7188    7179    7176      35    7188    7179
    7182      35    7188    7179    7185      35    7191    7188    7179      36
    7200    7197    7194       1    7203    7197    7194       1    7203    7197
    7200       1    7206    7197    7194      35    7206    7197    7200      35
    7206    7197    7203      35    7209    7206    7197      36    7218    7215
    7212       1    7221    7215    7212       1    7221    7215    7218       1
    7224    7215    7212      35    7224    7215    7218      35    7224    7215
    7221      35    7227    7224    7215      36    7236    7233    7230       1
    7239    7233    7230       1    7239    7233    7236       1    7242    7233
    7230      35    7242    7233    7236      35    7242    7233    7239      35
    7245    7242    7233      36    7254    7251    7248       1    7257    7251
    7248       1    7257    7251    7254       1    7260    7251    7248      35
    7260    7251    7254      35    7260    7251    7257      35    7263    7260
    7251      36    7272    7269    7266       1    7275    7269    7266       1
    7275    7269    7272       1    7278    7269    7266      35    7278    7269
    7272      35    7278    7269    7275      35    7281    7278    7269      36
    7290    7287    7284       1    7293    7287    7284       1    7293    7287
    7290       1    7296    7287    7284      35    7296    7287    7290      35
    7296    7287    7293      35    7299    7296    7287      36    7308    7305
    7302       1    7311    7305    7302       1    7311    7305    7308       1
    7314    7305    7302      35    7314    7305    7308      35    7314    7305
    7311      35    7317    7314    7305      36    7326    7323    7320       1
    7329    7323    7320       1    7329    7323    7326       1    7332    7323
    7320      35    7332    7323    7326      35    7332    7323    7329      35
    7335    7332    7323      36    7344    7341    7338       1    7347    7341
    7338       1    7347    7341    7344       1    7350    7341    7338      35
    7350    7341    7344      35    7350    7341    7347      35    7353    7350
    7341      36    7362    7359    7356       1    7365    7359    7356       1
    7365    7359    7362       1    7368    7359    7356      35    7368    7359
    7362      35    7368    7359    7365      35    7371    7368    7359      36
    7380    7377    7374       1    7383    7377    7374       1    7383    7377
    7380       1    7386    7377    7374      35    7386    7377    7380      35
    7386    7377    7383      35    7389    7386    7377      36    7398    7395
    7392       1    7401    7395    7392       1    7401    7395    7398       1
    7404    7395    7392      35    7404    7395    7398      35    7404    7395
    7401      35    7407    7404    7395      36    7416    7413    7410       1
    7419    7413    7410       1    7419    7413    7416       1    7422    7413
    7410      35    7422    7413    7416      35    7422    7413    7419      35
    7425    7422    7413      36    7434    7431    7428       1    7437    7431
    7428       1    7437    7431    7434       1    7440    7431    7428      35
    7440    7431    7434      35    7440    7431    7437      35    7443    7440
    7431      36    7452    7449    7446       1    7455    7449    7446       1
    7455    7449    7452       1    7458    7449    7446      35    7458    7449
    7452      35    7458    7449    7455      35    7461    7458    7449      36
    7470    7467    7464       1    7473    7467    7464       1    7473    7467
    7470       1    7476    7467    7464      35    7476    7467    7470      35
    7476    7467    7473      35    7479    7476    7467      36    7488    7485
    7482       1    7491    7485    7482       1    7491    7485    7488       1
    7494    7485    7482      35    7494    7485    7488      35    7494    7485
    7491      35    7497    7494    7485      36    7506    7503    7500       1
    7509    7503    7500       1    7509    7503    7506       1    7512    7503
    7500      35    7512    7503    7506      35    7512    7503    7509      35
    7515    7512    7503      36    7524    7521    7518       1    7527    7521
    7518       1    7527    7521    7524       1    7530    7521    7518      35
    7530    7521    7524      35    7530    7521    7527      35    7533    7530
    7521      36    7542    7539    7536       1    7545    7539    7536       1
    7545    7539    7542       1    7548    7539    7536      35    7548    7539
    7542      35    7548    7539    7545      35    7551    7548    7539      36
    7560    7557    7554       1    7563    7557    7554       1    7563    7557
    7560       1    7566    7557    7554      35    7566    7557    7560      35
    7566    7557    7563      35    7569    7566    7557      36    7578    7575
    7572       1    7581    7575    7572       1    7581    7575    7578       1
    7584    7575    7572      35    7584    7575    7578      35    7584    7575
    7581      35    7587    7584    7575      36    7596    7593    7590       1
    7599    7593    7590       1    7599    7593    7596       1    7602    7593
    7590      35    7602    7593    7596      35    7602    7593    7599      35
    7605    7602    7593      36    7614    7611    7608       1    7617    7611
    7608       1    7617    7611    7614       1    7620    7611    7608      35
    7620    7611    7614      35    7620    7611    7617      35    7623    7620
    7611      36    7632    7629    7626       1    7635    7629    7626       1
    7635    7629    7632       1    7638    7629    7626      35    7638    7629
    7632      35    7638    7629    7635      35    7641    7638    7629      36
    7650    7647    7644       1    7653    7647    7644       1    7653    7647
    7650       1    7656    7647    7644      35    7656    7647    7650      35
    7656    7647    7653      35    7659    7656    7647      36    7668    7665
    7662       1    7671    7665    7662       1    7671    7665    7668       1
    7674    7665    7662      35    7674    7665    7668      35    7674    7665
    7671      35    7677    7674    7665      36    7686    7683    7680       1
    7689    7683    7680       1    7689    7683    7686       1    7692    7683
    7680      35    7692    7683    7686      35    7692    7683    7689      35
    7695    7692    7683      36    7704    7701    7698       1    7707    7701
    7698       1    7707    7701    7704       1    7710    7701    7698      35
    7710    7701    7704      35    7710    7701    7707      35    7713    7710
    7701      36    7722    7719    7716       1    7725    7719    7716       1
    7725    7719    7722       1    7728    7719    7716      35    7728    7719
    7722      35    7728    7719    7725      35    7731    7728    7719      36
    7740    7737    7734       1    7743    7737    7734       1    7743    7737
    7740       1    7746    7737    7734      35    7746    7737    7740      35
    7746    7737    7743      35    7749    7746    7737      36    7758    7755
    7752       1    7761    7755    7752       1    7761    7755    7758       1
    7764    7755    7752      35    7764    7755    7758      35    7764    7755
    7761      35    7767    7764    7755      36    7776    7773    7770       1
    7779    7773    7770       1    7779    7773    7776       1    7782    7773
    7770      35    7782    7773    7776      35    7782    7773    7779      35
    7785    7782    7773      36    7794    7791    7788       1    7797    7791
    7788       1    7797    7791    7794       1    7800    7791    7788      35
    7800    7791    7794      35    7800    7791    7797      35    7803    7800
    7791      36    7812    7809    7806       1    7815    7809    7806       1
    7815    7809    7812       1    7818    7809    7806      35    7818    7809
    7812      35    7818    7809    7815      35    7821    7818    7809      36
    7830    7827    7824       1    7833    7827    7824       1    7833    7827
    7830       1    7836    7827    7824      35    7836    7827    7830      35
    7836    7827    7833      35    7839    7836    7827      36    7848    7845
    7842       1    7851    7845    7842       1    7851    7845    7848       1
    7854    7845    7842      35    7854    7845    7848      35    7854    7845
    7851      35    7857    7854    7845      36    7866    7863    7860       1
    7869    7863    7860       1    7869    7863    7866       1    7872    7863
    7860      35    7872    7863    7866      35    7872    7863    7869      35
    7875    7872    7863      36    7884    7881    7878       1    7887    7881
    7878       1    7887    7881    7884       1    7890    7881    7878      35
    7890    7881    7884      35    7890    7881    7887      35    7893    7890
    7881      36    7902    7899    7896       1    7905    7899    7896       1
    7905    7899    7902       1    7908    7899    7896      35    7908    7899
    7902      35    7908    7899    7905      35    7911    7908    7899      36
    7920    7917    7914       1    7923    7917    7914       1    7923    7917
    7920       1    7926    7917    7914      35    7926    7917    7920      35
    7926    7917    7923      35    7929    7926    7917      36    7938    7935
    7932       1    7941    7935    7932       1    7941    7935    7938       1
    7944    7935    7932      35    7944    7935    7938      35    7944    7935
    7941      35    7947    7944    7935      36    7956    7953    7950       1
    7959    7953    7950       1    7959    7953    7956       1    7962    7953
    7950      35    7962    7953    7956      35    7962    7953    7959      35
    7965    7962    7953      36    7974    7971    7968       1    7977    7971
    7968       1    7977    7971    7974       1    7980    7971    7968      35
    7980    7971    7974      35    7980    7971    7977      35    7983    7980
    7971      36    7992    7989    7986       1    7995    7989    7986       1
    7995    7989    7992       1    7998    7989    7986      35    7998    7989
    7992      35    7998    7989    7995      35    8001    7998    7989      36
    8010    8007    8004       1    8013    8007    8004       1    8013    8007
    8010       1    8016    8007    8004      35    8016    8007    8010      35
    8016    8007    8013      35    8019    8016    8007      36    8028    8025
    8022       1    8031    8025    8022       1    8031    8025    8028       1
    8034    8025    8022      35    8034    8025    8028      35    8034    8025
    8031      35    8037    8034    8025      36    8046    8043    8040       1
    8049    8043    8040       1    8049    8043    8046       1    8052    8043
    8040      35    8052    8043    8046      35    8052    8043    8049      35
    8055    8052    8043      36    8064    8061    8058       1    8067    8061
    8058       1    8067    8061    8064       1    8070    8061    8058      35
    8070    8061    8064      35    8070    8061    8067      35    8073    8070
    8061      36    8082    8079    8076       1    8085    8079    8076       1
    8085    8079    8082       1    8088    8079    8076      35    8088    8079
    8082      35    8088    8079    8085      35    8091    8088    8079      36
    8100    8097    8094       1    8103    8097    8094       1    8103    8097
    8100       1    8106    8097    8094      35    8106    8097    8100      35
    8106    8097    8103      35    8109    8106    8097      36    8118    8115
    8112       1    8121    8115    8112       1    8121    8115    8118       1
    8124    8115    8112      35    8124    8115    8118      35    8124    8115
    8121      35    8127    8124    8115      36    8136    8133    8130       1
    8139    8133    8130       1    8139    8133    8136       1    8142    8133
    8130      35    8142    8133    8136      35    8142    8133    8139      35
    8145    8142    8133      36    8154    8151    8148       1    8157    8151
    8148       1    8157    8151    8154       1    8160    8151    8148      35
    8160    8151    8154      35    8160    8151    8157      35    8163    8160
    8151      36    8172    8169    8166       1    8175    8169    8166       1
    8175    8169    8172       1    8178    8169    8166      35    8178    8169
    8172      35    8178    8169    8175      35    8181    8178    8169      36
    8190    8187    8184       1    8193    8187    8184       1    8193    8187
    8190       1    8196    8187    8184      35    8196    8187    8190      35
    8196    8187    8193      35    8199    8196    8187      36    8208    8205
    8202       1    8211    8205    8202       1    8211    8205    8208       1
    8214    8205    8202      35    8214    8205    8208      35    8214    8205
    8211      35    8217    8214    8205      36    8226    8223    8220       1
    8229    8223    8220       1    8229    8223    8226       1    8232    8223
    8220      35    8232    8223    8226      35    8232    8223    8229      35
    8235    8232    8223      36    8244    8241    8238       1    8247    8241
    8238       1    8247    8241    8244       1    8250    8241    8238      35
    8250    8241    8244      35    8250    8241    8247      35    8253    8250
    8241      36    8262    8259    8256       1    8265    8259    8256       1
    8265    8259    8262       1    8268    8259    8256      35    8268    8259
    8262      35    8268    8259    8265      35    8271    8268    8259      36
    8280    8277    8274       1    8283    8277    8274       1    8283    8277
    8280       1    8286    8277    8274      35    8286    8277    8280      35
    8286    8277    8283      35    8289    8286    8277      36    8298    8295
    8292       1    8301    8295    8292       1    8301    8295    8298       1
    8304    8295    8292      35    8304    8295    8298      35    8304    8295
    8301      35    8307    8304    8295      36    8316    8313    8310       1
    8319    8313    8310       1    8319    8313    8316       1    8322    8313
    8310      35    8322    8313    8316      35    8322    8313    8319      35
    8325    8322    8313      36    8334    8331    8328       1    8337    8331
    8328       1    8337    8331    8334       1    8340    8331    8328      35
    8340    8331    8334      35    8340    8331    8337      35    8343    8340
    8331      36    8352    8349    8346       1    8355    8349    8346       1
    8355    8349    8352       1    8358    8349    8346      35    8358    8349
    8352      35    8358    8349    8355      35    8361    8358    8349      36
    8370    8367    8364       1    8373    8367    8364       1    8373    8367
    8370       1    8376    8367    8364      35    8376    8367    8370      35
    8376    8367    8373      35    8379    8376    8367      36    8388    8385
    8382       1    8391    8385    8382       1    8391    8385    8388       1
    8394    8385    8382      35    8394    8385    8388      35    8394    8385
    8391      35    8397    8394    8385      36    8406    8403    8400       1
    8409    8403    8400       1    8409    8403    8406       1    8412    8403
    8400      35    8412    8403    8406      35    8412    8403    8409      35
    8415    8412    8403      36    8424    8421    8418       1    8427    8421
    8418       1    8427    8421    8424       1    8430    8421    8418      35
    8430    8421    8424      35    8430    8421    8427      35    8433    8430
    8421      36    8442    8439    8436       1    8445    8439    8436       1
    8445    8439    8442       1    8448    8439    8436      35    8448    8439
    8442      35    8448    8439    8445      35    8451    8448    8439      36
    8460    8457    8454       1    8463    8457    8454       1    8463    8457
    8460       1    8466    8457    8454      35    8466    8457    8460      35
    8466    8457    8463      35    8469    8466    8457      36    8478    8475
    8472       1    8481    8475    8472       1    8481    8475    8478       1
    8484    8475    8472      35    8484    8475    8478      35    8484    8475
    8481      35    8487    8484    8475      36    8496    8493    8490       1
    8499    8493    8490       1    8499    8493    8496       1    8502    8493
    8490      35    8502    8493    8496      35    8502    8493    8499      35
    8505    8502    8493      36    8514    8511    8508       1    8517    8511
    8508       1    8517    8511    8514       1    8520    8511    8508      35
    8520    8511    8514      35    8520    8511    8517      35    8523    8520
    8511      36    8532    8529    8526       1    8535    8529    8526       1
    8535    8529    8532       1    8538    8529    8526      35    8538    8529
    8532      35    8538    8529    8535      35    8541    8538    8529      36
    8550    8547    8544       1    8553    8547    8544       1    8553    8547
    8550       1    8556    8547    8544      35    8556    8547    8550      35
    8556    8547    8553      35    8559    8556    8547      36    8568    8565
    8562       1    8571    8565    8562       1    8571    8565    8568       1
    8574    8565    8562      35    8574    8565    8568      35    8574    8565
    8571      35    8577    8574    8565      36    8586    8583    8580       1
    8589    8583    8580       1    8589    8583    8586       1    8592    8583
    8580      35    8592    8583    8586      35    8592    8583    8589      35
    8595    8592    8583      36    8604    8601    8598       1    8607    8601
    8598       1    8607    8601    8604       1    8610    8601    8598      35
    8610    8601    8604      35    8610    8601    8607      35    8613    8610
    8601      36    8622    8619    8616       1    8625    8619    8616       1
    8625    8619    8622       1    8628    8619    8616      35    8628    8619
    8622      35    8628    8619    8625      35    8631    8628    8619      36
    8640    8637    8634       1    8643    8637    8634       1    8643    8637
    8640       1    8646    8637    8634      35    8646    8637    8640      35
    8646    8637    8643      35    8649    8646    8637      36    8658    8655
    8652       1    8661    8655    8652       1    8661    8655    8658       1
    8664    8655    8652      35    8664    8655    8658      35    8664    8655
    8661      35    8667    8664    8655      36    8676    8673    8670       1
    8679    8673    8670       1    8679    8673    8676       1    8682    8673
    8670      35    8682    8673    8676      35    8682    8673    8679      35
    8685    8682    8673      36    8694    8691    8688       1    8697    8691
    8688       1    8697    8691    8694       1    8700    8691    8688      35
    8700    8691    8694      35    8700    8691    8697      35    8703    8700
    8691      36    8712    8709    8706       1    8715    8709    8706       1
    8715    8709    8712       1    8718    8709    8706      35    8718    8709
    8712      35    8718    8709    8715      35    8721    8718    8709      36
    8730    8727    8724       1    8733    8727    8724       1    8733    8727
    8730       1    8736    8727    8724      35    8736    8727    8730      35
    8736    8727    8733      35    8739    8736    8727      36    8748    8745
    8742       1    8751    8745    8742       1    8751    8745    8748       1
    8754    8745    8742      35    8754    8745    8748      35    8754    8745
    8751      35    8757    8754    8745      36    8766    8763    8760       1
    8769    8763    8760       1    8769    8763    8766       1    8772    8763
    8760      35    8772    8763    8766      35    8772    8763    8769      35
    8775    8772    8763      36    8784    8781    8778       1    8787    8781
    8778       1    8787    8781    8784       1    8790    8781    8778      35
    8790    8781    8784      35    8790    8781    8787      35    8793    8790
    8781      36    8802    8799    8796       1    8805    8799    8796       1
    8805    8799    8802       1    8808    8799    8796      35    8808    8799
    8802      35    8808    8799    8805      35    8811    8808    8799      36
    8820    8817    8814       1    8823    8817    8814       1    8823    8817
    8820       1    8826    8817    8814      35    8826    8817    8820      35
    8826    8817    8823      35    8829    8826    8817      36    8838    8835
    8832       1    8841    8835    8832       1    8841    8835    8838       1
    8844    8835    8832      35    8844    8835    8838      35    8844    8835
    8841      35    8847    8844    8835      36    8856    8853    8850       1
    8859    8853    8850       1    8859    8853    8856       1    8862    8853
    8850      35    8862    8853    8856      35    8862    8853    8859      35
    8865    8862    8853      36    8874    8871    8868       1    8877    8871
    8868       1    8877    8871    8874       1    8880    8871    8868      35
    8880    8871    8874      35    8880    8871    8877      35    8883    8880
    8871      36    8892    8889    8886       1    8895    8889    8886       1
    8895    8889    8892       1    8898    8889    8886      35    8898    8889
    8892      35    8898    8889    8895      35    8901    8898    8889      36
    8910    8907    8904       1    8913    8907    8904       1    8913    8907
    8910       1    8916    8907    8904      35    8916    8907    8910      35
    8916    8907    8913      35    8919    8916    8907      36    8928    8925
    8922       1    8931    8925    8922       1    8931    8925    8928       1
    8934    8925    8922      35    8934    8925    8928      35    8934    8925
    8931      35    8937    8934    8925      36    8946    8943    8940       1
    8949    8943    8940       1    8949    8943    8946       1    8952    8943
    8940      35    8952    8943    8946      35    8952    8943    8949      35
    8955    8952    8943      36    8964    8961    8958       1    8967    8961
    8958       1    8967    8961    8964       1    8970    8961    8958      35
    8970    8961    8964      35    8970    8961    8967      35    8973    8970
    8961      36    8982    8979    8976       1    8985    8979    8976       1
    8985    8979    8982       1    8988    8979    8976      35    8988    8979
    8982      35    8988    8979    8985      35    8991    8988    8979      36
    9000    8997    8994       1    9003    8997    8994       1    9003    8997
    9000       1    9006    8997    8994      35    9006    8997    9000      35
    9006    8997    9003      35    9009    9006    8997      36    9018    9015
    9012       1    9021    9015    9012       1    9021    9015    9018       1
    9024    9015    9012      35    9024    9015    9018      35    9024    9015
    9021      35    9027    9024    9015      36    9036    9033    9030       1
    9039    9033    9030       1    9039    9033    9036       1    9042    9033
    9030      35    9042    9033    9036      35    9042    9033    9039      35
    9045    9042    9033      36    9054    9051    9048       1    9057    9051
    9048       1    9057    9051    9054       1    9060    9051    9048      35
    9060    9051    9054      35    9060    9051    9057      35    9063    9060
    9051      36    9072    9069    9066       1    9075    9069    9066       1
    9075    9069    9072       1    9078    9069    9066      35    9078    9069
    9072      35    9078    9069    9075      35    9081    9078    9069      36
    9090    9087    9084       1    9093    9087    9084       1    9093    9087
    9090       1    9096    9087    9084      35    9096    9087    9090      35
    9096    9087    9093      35    9099    9096    9087      36    9108    9105
    9102       1    9111    9105    9102       1    9111    9105    9108       1
    9114    9105    9102      35    9114    9105    9108      35    9114    9105
    9111      35    9117    9114    9105      36    9126    9123    9120       1
    9129    9123    9120       1    9129    9123    9126       1    9132    9123
    9120      35    9132    9123    9126      35    9132    9123    9129      35
    9135    9132    9123      36    9144    9141    9138       1    9147    9141
    9138       1    9147    9141    9144       1    9150    9141    9138      35
    9150    9141    9144      35    9150    9141    9147      35    9153    9150
    9141      36    9162    9159    9156       1    9165    9159    9156       1
    9165    9159    9162       1    9168    9159    9156      35    9168    9159
    9162      35    9168    9159    9165      35    9171    9168    9159      36
    9180    9177    9174       1    9183    9177    9174       1    9183    9177
    9180       1    9186    9177    9174      35    9186    9177    9180      35
    9186    9177    9183      35    9189    9186    9177      36    9198    9195
    9192       1    9201    9195    9192       1    9201    9195    9198       1
    9204    9195    9192      35    9204    9195    9198      35    9204    9195
    9201      35    9207    9204    9195      36    9216    9213    9210       1
    9219    9213    9210       1    9219    9213    9216       1    9222    9213
    9210      35    9222    9213    9216      35    9222    9213    9219      35
    9225    9222    9213      36    9234    9231    9228       1    9237    9231
    9228       1    9237    9231    9234       1    9240    9231    9228      35
    9240    9231    9234      35    9240    9231    9237      35    9243    9240
    9231      36    9252    9249    9246       1    9255    9249    9246       1
    9255    9249    9252       1    9258    9249    9246      35    9258    9249
    9252      35    9258    9249    9255      35    9261    9258    9249      36
    9270    9267    9264       1    9273    9267    9264       1    9273    9267
    9270       1    9276    9267    9264      35    9276    9267    9270      35
    9276    9267    9273      35    9279    9276    9267      36    9288    9285
    9282       1    9291    9285    9282       1    9291    9285    9288       1
    9294    9285    9282      35    9294    9285    9288      35    9294    9285
    9291      35    9297    9294    9285      36    9306    9303    9300       1
    9309    9303    9300       1    9309    9303    9306       1    9312    9303
    9300      35    9312    9303    9306      35    9312    9303    9309      35
    9315    9312    9303      36    9324    9321    9318       1    9327    9321
    9318       1    9327    9321    9324       1    9330    9321    9318      35
    9330    9321    9324      35    9330    9321    9327      35    9333    9330
    9321      36    9342    9339    9336       1    9345    9339    9336       1
    9345    9339    9342       1    9348    9339    9336      35    9348    9339
    9342      35    9348    9339    9345      35    9351    9348    9339      36
    9360    9357    9354       1    9363    9357    9354       1    9363    9357
    9360       1    9366    9357    9354      35    9366    9357    9360      35
    9366    9357    9363      35    9369    9366    9357      36    9378    9375
    9372       1    9381    9375    9372       1    9381    9375    9378       1
    9384    9375    9372      35    9384    9375    9378      35    9384    9375
    9381      35    9387    9384    9375      36    9396    9393    9390       1
    9399    9393    9390       1    9399    9393    9396       1    9402    9393
    9390      35    9402    9393    9396      35    9402    9393    9399      35
    9405    9402    9393      36    9414    9411    9408       1    9417    9411
    9408       1    9417    9411    9414       1    9420    9411    9408      35
    9420    9411    9414      35    9420    9411    9417      35    9423    9420
    9411      36    9432    9429    9426       1    9435    9429    9426       1
    9435    9429    9432       1    9438    9429    9426      35    9438    9429
    9432      35    9438    9429    9435      35    9441    9438    9429      36
    9450    9447    9444       1    9453    9447    9444       1    9453    9447
    9450       1    9456    9447    9444      35    9456    9447    9450      35
    9456    9447    9453      35    9459    9456    9447      36    9468    9465
    9462       1    9471    9465    9462       1    9471    9465    9468       1
    9474    9465    9462      35    9474    9465    9468      35    9474    9465
    9471      35    9477    9474    9465      36    9486    9483    9480       1
    9489    9483    9480       1    9489    9483    9486       1    9492    9483
    9480      35    9492    9483    9486      35    9492    9483    9489      35
    9495    9492    9483      36    9504    9501    9498       1    9507    9501
    9498       1    9507    9501    9504       1    9510    9501    9498      35
    9510    9501    9504      35    9510    9501    9507      35    9513    9510
    9501      36    9522    9519    9516       1    9525    9519    9516       1
    9525    9519    9522       1    9528    9519    9516      35    9528    9519
    9522      35    9528    9519    9525      35    9531    9528    9519      36
    9540    9537    9534       1    9543    9537    9534       1    9543    9537
    9540       1    9546    9537    9534      35    9546    9537    9540      35
    9546    9537    9543      35    9549    9546    9537      36    9558    9555
    9552       1    9561    9555    9552       1    9561    9555    9558       1
    9564    9555    9552      35    9564    9555    9558      35    9564    9555
    9561      35    9567    9564    9555      36    9576    9573    9570       1
    9579    9573    9570       1    9579    9573    9576       1    9582    9573
    9570      35    9582    9573    9576      35    9582    9573    9579      35
    9585    9582    9573      36    9594    9591    9588       1    9597    9591
    9588       1    9597    9591    9594       1    9600    9591    9588      35
    9600    9591    9594      35    9600    9591    9597      35    9603    9600
    9591      36    9612    9609    9606       1    9615    9609    9606       1
    9615    9609    9612       1    9618    9609    9606      35    9618    9609
    9612      35    9618    9609    9615      35    9621    9618    9609      36
    9630    9627    9624       1    9633    9627    9624       1    9633    9627
    9630       1    9636    9627    9624      35    9636    9627    9630      35
    9636    9627    9633      35    9639    9636    9627      36    9648    9645
    9642       1    9651    9645    9642       1    9651    9645    9648       1
    9654    9645    9642      35    9654    9645    9648      35    9654    9645
    9651      35    9657    9654    9645      36    9666    9663    9660       1
    9669    9663    9660       1    9669    9663    9666       1    9672    9663
    9660      35    9672    9663    9666      35    9672    9663    9669      35
    9675    9672    9663      36    9684    9681    9678       1    9687    9681
    9678       1    9687    9681    9684       1    9690    9681    9678      35
    9690    9681    9684      35    9690    9681    9687      35    9693    9690
    9681      36    9702    9699    9696       1    9705    9699    9696       1
    9705    9699    9702       1    9708    9699    9696      35    9708    9699
    9702      35    9708    9699    9705      35    9711    9708    9699      36
    9720    9717    9714       1    9723    9717    9714       1    9723    9717
    9720       1    9726    9717    9714      35    9726    9717    9720      35
    9726    9717    9723      35    9729    9726    9717      36    9738    9735
    9732       1    9741    9735    9732       1    9741    9735    9738       1
    9744    9735    9732      35    9744    9735    9738      35    9744    9735
    9741      35    9747    9744    9735      36    9756    9753    9750       1
    9759    9753    9750       1    9759    9753    9756       1    9762    9753
    9750      35    9762    9753    9756      35    9762    9753    9759      35
    9765    9762    9753      36    9774    9771    9768       1    9777    9771
    9768       1    9777    9771    9774       1    9780    9771    9768      35
    9780    9771    9774      35    9780    9771    9777      35    9783    9780
    9771      36    9792    9789    9786       1    9795    9789    9786       1
    9795    9789    9792       1    9798    9789    9786      35    9798    9789
    9792      35    9798    9789    9795      35    9801    9798    9789      36
    9810    9807    9804       1    9813    9807    9804       1    9813    9807
    9810       1    9816    9807    9804      35    9816    9807    9810      35
    9816    9807    9813      35    9819    9816    9807      36    9828    9825
    9822       1    9831    9825    9822       1    9831    9825    9828       1
    9834    9825    9822      35    9834    9825    9828      35    9834    9825
    9831      35    9837    9834    9825      36    9846    9843    9840       1
    9849    9843    9840       1    9849    9843    9846       1    9852    9843
    9840      35    9852    9843    9846      35    9852    9843    9849      35
    9855    9852    9843      36    9864    9861    9858       1    9867    9861
    9858       1    9867    9861    9864       1    9870    9861    9858      35
    9870    9861    9864      35    9870    9861    9867      35    9873    9870
    9861      36    9882    9879    9876       1    9885    9879    9876       1
    9885    9879    9882       1    9888    9879    9876      35    9888    9879
    9882      35    9888    9879    9885      35    9891    9888    9879      36
    9900    9897    9894       1    9903    9897    9894       1    9903    9897
    9900       1    9906    9897    9894      35    9906    9897    9900      35
    9906    9897    9903      35    9909    9906    9897      36    9918    9915
    9912       1    9921    9915    9912       1    9921    9915    9918       1
    9924    9915    9912      35    9924    9915    9918      35    9924    9915
    9921      35    9927    9924    9915      36    9936    9933    9930       1
    9939    9933    9930       1    9939    9933    9936       1    9942    9933
    9930      35    9942    9933    9936      35    9942    9933    9939      35
    9945    9942    9933      36    9954    9951    9948       1    9957    9951
    9948       1    9957    9951    9954       1    9960    9951    9948      35
    9960    9951    9954      35    9960    9951    9957      35    9963    9960
    9951      36    9972    9969    9966       1    9975    9969    9966       1
    9975    9969    9972       1    9978    9969    9966      35    9978    9969
    9972      35    9978    9969    9975      35    9981    9978    9969      36
    9990    9987    9984       1    9993    9987    9984       1    9993    9987
    9990       1    9996    9987    9984      35    9996    9987    9990      35
    9996    9987    9993      35    9999    9996    9987      36   10008   10005
   10002       1   10011   10005   10002       1   10011   10005   10008       1
   10014   10005   10002      35   10014   10005   10008      35   10014   10005
   10011      35   10017   10014   10005      36   10026   10023   10020       1
   10029   10023   10020       1   10029   10023   10026       1   10032   10023
   10020      35   10032   10023   10026      35   10032   10023   10029      35
   10035   10032   10023      36   10044   10041   10038       1   10047   10041
   10038       1   10047   10041   10044       1   10050   10041   10038      35
   10050   10041   10044      35   10050   10041   10047      35   10053   10050
   10041      36   10062   10059   10056       1   10065   10059   10056       1
   10065   10059   10062       1   10068   10059   10056      35   10068   10059
   10062      35   10068   10059   10065      35   10071   10068   10059      36
   10080   10077   10074       1   10083   10077   10074       1   10083   10077
   10080       1   10086   10077   10074      35   10086   10077   10080      35
   10086   10077   10083      35   10089   10086   10077      36   10098   10095
   10092       1   10101   10095   10092       1   10101   10095   10098       1
   10104   10095   10092      35   10104   10095   10098      35   10104   10095
   10101      35   10107   10104   10095      36   10116   10113   10110       1
   10119   10113   10110       1   10119   10113   10116       1   10122   10113
   10110      35   10122   10113   10116      35   10122   10113   10119      35
   10125   10122   10113      36   10134   10131   10128       1   10137   10131
   10128       1   10137   10131   10134       1   10140   10131   10128      35
   10140   10131   10134      35   10140   10131   10137      35   10143   10140
   10131      36   10152   10149   10146       1   10155   10149   10146       1
   10155   10149   10152       1   10158   10149   10146      35   10158   10149
   10152      35   10158   10149   10155      35   10161   10158   10149      36
   10170   10167   10164       1   10173   10167   10164       1   10173   10167
   10170       1   10176   10167   10164      35   10176   10167   10170      35
   10176   10167   10173      35   10179   10176   10167      36   10188   10185
   10182       1   10191   10185   10182       1   10191   10185   10188       1
   10194   10185   10182      35   10194   10185   10188      35   10194   10185
   10191      35   10197   10194   10185      36   10206   10203   10200       1
   10209   10203   10200       1   10209   10203   10206       1   10212   10203
   10200      35   10212   10203   10206      35   10212   10203   10209      35
   10215   10212   10203      36   10224   10221   10218       1   10227   10221
   10218       1   10227   10221   10224       1   10230   10221   10218      35
   10230   10221   10224      35   10230   10221   10227      35   10233   10230
   10221      36   10242   10239   10236       1   10245   10239   10236       1
   10245   10239   10242       1   10248   10239   10236      35   10248   10239
   10242      35   10248   10239   10245      35   10251   10248   10239      36
   10260   10257   10254       1   10263   10257   10254       1   10263   10257
   10260       1   10266   10257   10254      35   10266   10257   10260      35
   10266   10257   10263      35   10269   10266   10257      36   10278   10275
   10272       1   10281   10275   10272       1   10281   10275   10278       1
   10284   10275   10272      35   10284   10275   10278      35   10284   10275
   10281      35   10287   10284   10275      36   10296   10293   10290       1
   10299   10293   10290       1   10299   10293   10296       1   10302   10293
   10290      35   10302   10293   10296      35   10302   10293   10299      35
   10305   10302   10293      36   10314   10311   10308       1   10317   10311
   10308       1   10317   10311   10314       1   10320   10311   10308      35
   10320   10311   10314      35   10320   10311   10317      35   10323   10320
   10311      36   10332   10329   10326       1   10335   10329   10326       1
   10335   10329   10332       1   10338   10329   10326      35   10338   10329
   10332      35   10338   10329   10335      35   10341   10338   10329      36
   10350   10347   10344       1   10353   10347   10344       1   10353   10347
   10350       1   10356   10347   10344      35   10356   10347   10350      35
   10356   10347   10353      35   10359   10356   10347      36   10368   10365
   10362       1   10371   10365   10362       1   10371   10365   10368       1
   10374   10365   10362      35   10374   10365   10368      35   10374   10365
   10371      35   10377   10374   10365      36   10386   10383   10380       1
   10389   10383   10380       1   10389   10383   10386       1   10392   10383
   10380      35   10392   10383   10386      35   10392   10383   10389      35
   10395   10392   10383      36   10404   10401   10398       1   10407   10401
   10398       1   10407   10401   10404       1   10410   10401   10398      35
   10410   10401   10404      35   10410   10401   10407      35   10413   10410
   10401      36   10422   10419   10416       1   10425   10419   10416       1
   10425   10419   10422       1   10428   10419   10416      35   10428   10419
   10422      35   10428   10419   10425      35   10431   10428   10419      36
   10440   10437   10434       1   10443   10437   10434       1   10443   10437
   10440       1   10446   10437   10434      35   10446   10437   10440      35
   10446   10437   10443      35   10449   10446   10437      36   10458   10455
   10452       1   10461   10455   10452       1   10461   10455   10458       1
   10464   10455   10452      35   10464   10455   10458      35   10464   10455
   10461      35   10467   10464   10455      36   10476   10473   10470       1
   10479   10473   10470       1   10479   10473   10476       1   10482   10473
   10470      35   10482   10473   10476      35   10482   10473   10479      35
   10485   10482   10473      36   10494   10491   10488       1   10497   10491
   10488       1   10497   10491   10494       1   10500   10491   10488      35
   10500   10491   10494      35   10500   10491   10497      35   10503   10500
   10491      36   10512   10509   10506       1   10515   10509   10506       1
   10515   10509   10512       1   10518   10509   10506      35   10518   10509
   10512      35   10518   10509   10515      35   10521   10518   10509      36
   10530   10527   10524       1   10533   10527   10524       1   10533   10527
   10530       1   10536   10527   10524      35   10536   10527   10530      35
   10536   10527   10533      35   10539   10536   10527      36   10548   10545
   10542       1   10551   10545   10542       1   10551   10545   10548       1
   10554   10545   10542      35   10554   10545   10548      35   10554   10545
   10551      35   10557   10554   10545      36   10566   10563   10560       1
   10569   10563   10560       1   10569   10563   10566       1   10572   10563
   10560      35   10572   10563   10566      35   10572   10563   10569      35
   10575   10572   10563      36   10584   10581   10578       1   10587   10581
   10578       1   10587   10581   10584       1   10590   10581   10578      35
   10590   10581   10584      35   10590   10581   10587      35   10593   10590
   10581      36   10602   10599   10596       1   10605   10599   10596       1
   10605   10599   10602       1   10608   10599   10596      35   10608   10599
   10602      35   10608   10599   10605      35   10611   10608   10599      36
   10620   10617   10614       1   10623   10617   10614       1   10623   10617
   10620       1   10626   10617   10614      35   10626   10617   10620      35
   10626   10617   10623      35   10629   10626   10617      36   10638   10635
   10632       1   10641   10635   10632       1   10641   10635   10638       1
   10644   10635   10632      35   10644   10635   10638      35   10644   10635
   10641      35   10647   10644   10635      36   10656   10653   10650       1
   10659   10653   10650       1   10659   10653   10656       1   10662   10653
   10650      35   10662   10653   10656      35   10662   10653   10659      35
   10665   10662   10653      36   10674   10671   10668       1   10677   10671
   10668       1   10677   10671   10674       1   10680   10671   10668      35
   10680   10671   10674      35   10680   10671   10677      35   10683   10680
   10671      36   10692   10689   10686       1   10695   10689   10686       1
   10695   10689   10692       1   10698   10689   10686      35   10698   10689
   10692      35   10698   10689   10695      35   10701   10698   10689      36
   10710   10707   10704       1   10713   10707   10704       1   10713   10707
   10710       1   10716   10707   10704      35   10716   10707   10710      35
   10716   10707   10713      35   10719   10716   10707      36   10728   10725
   10722       1   10731   10725   10722       1   10731   10725   10728       1
   10734   10725   10722      35   10734   10725   10728      35   10734   10725
   10731      35   10737   10734   10725      36   10746   10743   10740       1
   10749   10743   10740       1   10749   10743   10746       1   10752   10743
   10740      35   10752   10743   10746      35   10752   10743   10749      35
   10755   10752   10743      36   10764   10761   10758       1   10767   10761
   10758       1   10767   10761   10764       1   10770   10761   10758      35
   10770   10761   10764      35   10770   10761   10767      35   10773   10770
   10761      36   10782   10779   10776       1   10785   10779   10776       1
   10785   10779   10782       1   10788   10779   10776      35   10788   10779
   10782      35   10788   10779   10785      35   10791   10788   10779      36
   10800   10797   10794       1   10803   10797   10794       1   10803   10797
   10800       1   10806   10797   10794      35   10806   10797   10800      35
   10806   10797   10803      35   10809   10806   10797      36   10818   10815
   10812       1   10821   10815   10812       1   10821   10815   10818       1
   10824   10815   10812      35   10824   10815   10818      35   10824   10815
   10821      35   10827   10824   10815      36   10836   10833   10830       1
   10839   10833   10830       1   10839   10833   10836       1   10842   10833
   10830      35   10842   10833   10836      35   10842   10833   10839      35
   10845   10842   10833      36   10854   10851   10848       1   10857   10851
   10848       1   10857   10851   10854       1   10860   10851   10848      35
   10860   10851   10854      35   10860   10851   10857      35   10863   10860
   10851      36   10872   10869   10866       1   10875   10869   10866       1
   10875   10869   10872       1   10878   10869   10866      35   10878   10869
   10872      35   10878   10869   10875      35   10881   10878   10869      36
   10890   10887   10884       1   10893   10887   10884       1   10893   10887
   10890       1   10896   10887   10884      35   10896   10887   10890      35
   10896   10887   10893      35   10899   10896   10887      36   10908   10905
   10902       1   10911   10905   10902       1   10911   10905   10908       1
   10914   10905   10902      35   10914   10905   10908      35   10914   10905
   10911      35   10917   10914   10905      36   10926   10923   10920       1
   10929   10923   10920       1   10929   10923   10926       1   10932   10923
   10920      35   10932   10923   10926      35   10932   10923   10929      35
   10935   10932   10923      36   10944   10941   10938       1   10947   10941
   10938       1   10947   10941   10944       1   10950   10941   10938      35
   10950   10941   10944      35   10950   10941   10947      35   10953   10950
   10941      36   10962   10959   10956       1   10965   10959   10956       1
   10965   10959   10962       1   10968   10959   10956      35   10968   10959
   10962      35   10968   10959   10965      35   10971   10968   10959      36
   10980   10977   10974       1   10983   10977   10974       1   10983   10977
   10980       1   10986   10977   10974      35   10986   10977   10980      35
   10986   10977   10983      35   10989   10986   10977      36   10998   10995
   10992       1   11001   10995   10992       1   11001   10995   10998       1
   11004   10995   10992      35   11004   10995   10998      35   11004   10995
   11001      35   11007   11004   10995      36   11016   11013   11010       1
   11019   11013   11010       1   11019   11013   11016       1   11022   11013
   11010      35   11022   11013   11016      35   11022   11013   11019      35
   11025   11022   11013      36   11034   11031   11028       1   11037   11031
   11028       1   11037   11031   11034       1   11040   11031   11028      35
   11040   11031   11034      35   11040   11031   11037      35   11043   11040
   11031      36   11052   11049   11046       1   11055   11049   11046       1
   11055   11049   11052       1   11058   11049   11046      35   11058   11049
   11052      35   11058   11049   11055      35   11061   11058   11049      36
   11070   11067   11064       1   11073   11067   11064       1   11073   11067
   11070       1   11076   11067   11064      35   11076   11067   11070      35
   11076   11067   11073      35   11079   11076   11067      36   11088   11085
   11082       1   11091   11085   11082       1   11091   11085   11088       1
   11094   11085   11082      35   11094   11085   11088      35   11094   11085
   11091      35   11097   11094   11085      36   11106   11103   11100       1
   11109   11103   11100       1   11109   11103   11106       1   11112   11103
   11100      35   11112   11103   11106      35   11112   11103   11109      35
   11115   11112   11103      36   11124   11121   11118       1   11127   11121
   11118       1   11127   11121   11124       1   11130   11121   11118      35
   11130   11121   11124      35   11130   11121   11127      35   11133   11130
   11121      36   11142   11139   11136       1   11145   11139   11136       1
   11145   11139   11142       1   11148   11139   11136      35   11148   11139
   11142      35   11148   11139   11145      35   11151   11148   11139      36
   11160   11157   11154       1   11163   11157   11154       1   11163   11157
   11160       1   11166   11157   11154      35   11166   11157   11160      35
   11166   11157   11163      35   11169   11166   11157      36   11178   11175
   11172       1   11181   11175   11172       1   11181   11175   11178       1
   11184   11175   11172      35   11184   11175   11178      35   11184   11175
   11181      35   11187   11184   11175      36   11196   11193   11190       1
   11199   11193   11190       1   11199   11193   11196       1   11202   11193
   11190      35   11202   11193   11196      35   11202   11193   11199      35
   11205   11202   11193      36   11214   11211   11208       1   11217   11211
   11208       1   11217   11211   11214       1   11220   11211   11208      35
   11220   11211   11214      35   11220   11211   11217      35   11223   11220
   11211      36   11232   11229   11226       1   11235   11229   11226       1
   11235   11229   11232       1   11238   11229   11226      35   11238   11229
   11232      35   11238   11229   11235      35   11241   11238   11229      36
   11250   11247   11244       1   11253   11247   11244       1   11253   11247
   11250       1   11256   11247   11244      35   11256   11247   11250      35
   11256   11247   11253      35   11259   11256   11247      36   11268   11265
   11262       1   11271   11265   11262       1   11271   11265   11268       1
   11274   11265   11262      35   11274   11265   11268      35   11274   11265
   11271      35   11277   11274   11265      36   11286   11283   11280       1
   11289   11283   11280       1   11289   11283   11286       1   11292   11283
   11280      35   11292   11283   11286      35   11292   11283   11289      35
   11295   11292   11283      36   11304   11301   11298       1   11307   11301
   11298       1   11307   11301   11304       1   11310   11301   11298      35
   11310   11301   11304      35   11310   11301   11307      35   11313   11310
   11301      36   11322   11319   11316       1   11325   11319   11316       1
   11325   11319   11322       1   11328   11319   11316      35   11328   11319
   11322      35   11328   11319   11325      35   11331   11328   11319      36
   11340   11337   11334       1   11343   11337   11334       1   11343   11337
   11340       1   11346   11337   11334      35   11346   11337   11340      35
   11346   11337   11343      35   11349   11346   11337      36   11358   11355
   11352       1   11361   11355   11352       1   11361   11355   11358       1
   11364   11355   11352      35   11364   11355   11358      35   11364   11355
   11361      35   11367   11364   11355      36   11376   11373   11370       1
   11379   11373   11370       1   11379   11373   11376       1   11382   11373
   11370      35   11382   11373   11376      35   11382   11373   11379      35
   11385   11382   11373      36   11394   11391   11388       1   11397   11391
   11388       1   11397   11391   11394       1   11400   11391   11388      35
   11400   11391   11394      35   11400   11391   11397      35   11403   11400
   11391      36   11412   11409   11406       1   11415   11409   11406       1
   11415   11409   11412       1   11418   11409   11406      35   11418   11409
   11412      35   11418   11409   11415      35   11421   11418   11409      36
   11430   11427   11424       1   11433   11427   11424       1   11433   11427
   11430       1   11436   11427   11424      35   11436   11427   11430      35
   11436   11427   11433      35   11439   11436   11427      36   11448   11445
   11442       1   11451   11445   11442       1   11451   11445   11448       1
   11454   11445   11442      35   11454   11445   11448      35   11454   11445
   11451      35   11457   11454   11445      36   11466   11463   11460       1
   11469   11463   11460       1   11469   11463   11466       1   11472   11463
   11460      35   11472   11463   11466      35   11472   11463   11469      35
   11475   11472   11463      36   11484   11481   11478       1   11487   11481
   11478       1   11487   11481   11484       1   11490   11481   11478      35
   11490   11481   11484      35   11490   11481   11487      35   11493   11490
   11481      36   11502   11499   11496       1   11505   11499   11496       1
   11505   11499   11502       1   11508   11499   11496      35   11508   11499
   11502      35   11508   11499   11505      35   11511   11508   11499      36
   11520   11517   11514       1   11523   11517   11514       1   11523   11517
   11520       1   11526   11517   11514      35   11526   11517   11520      35
   11526   11517   11523      35   11529   11526   11517      36   11538   11535
   11532       1   11541   11535   11532       1   11541   11535   11538       1
   11544   11535   11532      35   11544   11535   11538      35   11544   11535
   11541      35   11547   11544   11535      36   11556   11553   11550       1
   11559   11553   11550       1   11559   11553   11556       1   11562   11553
   11550      35   11562   11553   11556      35   11562   11553   11559      35
   11565   11562   11553      36   11574   11571   11568       1   11577   11571
   11568       1   11577   11571   11574       1   11580   11571   11568      35
   11580   11571   11574      35   11580   11571   11577      35   11583   11580
   11571      36   11592   11589   11586       1   11595   11589   11586       1
   11595   11589   11592       1   11598   11589   11586      35   11598   11589
   11592      35   11598   11589   11595      35   11601   11598   11589      36
   11610   11607   11604       1   11613   11607   11604       1   11613   11607
   11610       1   11616   11607   11604      35   11616   11607   11610      35
   11616   11607   11613      35   11619   11616   11607      36   11628   11625
   11622       1   11631   11625   11622       1   11631   11625   11628       1
   11634   11625   11622      35   11634   11625   11628      35   11634   11625
   11631      35   11637   11634   11625      36   11646   11643   11640       1
   11649   11643   11640       1   11649   11643   11646       1   11652   11643
   11640      35   11652   11643   11646      35   11652   11643   11649      35
   11655   11652   11643      36   11664   11661   11658       1   11667   11661
   11658       1   11667   11661   11664       1   11670   11661   11658      35
   11670   11661   11664      35   11670   11661   11667      35   11673   11670
   11661      36   11682   11679   11676       1   11685   11679   11676       1
   11685   11679   11682       1   11688   11679   11676      35   11688   11679
   11682      35   11688   11679   11685      35   11691   11688   11679      36
   11700   11697   11694       1   11703   11697   11694       1   11703   11697
   11700       1   11706   11697   11694      35   11706   11697   11700      35
   11706   11697   11703      35   11709   11706   11697      36   11718   11715
   11712       1   11721   11715   11712       1   11721   11715   11718       1
   11724   11715   11712      35   11724   11715   11718      35   11724   11715
   11721      35   11727   11724   11715      36   11736   11733   11730       1
   11739   11733   11730       1   11739   11733   11736       1   11742   11733
   11730      35   11742   11733   11736      35   11742   11733   11739      35
   11745   11742   11733      36   11754   11751   11748       1   11757   11751
   11748       1   11757   11751   11754       1   11760   11751   11748      35
   11760   11751   11754      35   11760   11751   11757      35   11763   11760
   11751      36   11772   11769   11766       1   11775   11769   11766       1
   11775   11769   11772       1   11778   11769   11766      35   11778   11769
   11772      35   11778   11769   11775      35   11781   11778   11769      36
   11790   11787   11784       1   11793   11787   11784       1   11793   11787
   11790       1   11796   11787   11784      35   11796   11787   11790      35
   11796   11787   11793      35   11799   11796   11787      36   11808   11805
   11802       1   11811   11805   11802       1   11811   11805   11808       1
   11814   11805   11802      35   11814   11805   11808      35   11814   11805
   11811      35   11817   11814   11805      36   11826   11823   11820       1
   11829   11823   11820       1   11829   11823   11826       1   11832   11823
   11820      35   11832   11823   11826      35   11832   11823   11829      35
   11835   11832   11823      36   11844   11841   11838       1   11847   11841
   11838       1   11847   11841   11844       1   11850   11841   11838      35
   11850   11841   11844      35   11850   11841   11847      35   11853   11850
   11841      36   11862   11859   11856       1   11865   11859   11856       1
   11865   11859   11862       1   11868   11859   11856      35   11868   11859
   11862      35   11868   11859   11865      35   11871   11868   11859      36
   11880   11877   11874       1   11883   11877   11874       1   11883   11877
   11880       1   11886   11877   11874      35   11886   11877   11880      35
   11886   11877   11883      35   11889   11886   11877      36   11898   11895
   11892       1   11901   11895   11892       1   11901   11895   11898       1
   11904   11895   11892      35   11904   11895   11898      35   11904   11895
   11901      35   11907   11904   11895      36   11916   11913   11910       1
   11919   11913   11910       1   11919   11913   11916       1   11922   11913
   11910      35   11922   11913   11916      35   11922   11913   11919      35
   11925   11922   11913      36   11934   11931   11928       1   11937   11931
   11928       1   11937   11931   11934       1   11940   11931   11928      35
   11940   11931   11934      35   11940   11931   11937      35   11943   11940
   11931      36   11952   11949   11946       1   11955   11949   11946       1
   11955   11949   11952       1   11958   11949   11946      35   11958   11949
   11952      35   11958   11949   11955      35   11961   11958   11949      36
   11970   11967   11964       1   11973   11967   11964       1   11973   11967
   11970       1   11976   11967   11964      35   11976   11967   11970      35
   11976   11967   11973      35   11979   11976   11967      36   11988   11985
   11982       1   11991   11985   11982       1   11991   11985   11988       1
   11994   11985   11982      35   11994   11985   11988      35   11994   11985
   11991      35   11997   11994   11985      36   12006   12003   12000       1
   12009   12003   12000       1   12009   12003   12006       1   12012   12003
   12000      35   12012   12003   12006      35   12012   12003   12009      35
   12015   12012   12003      36   12024   12021   12018       1   12027   12021
   12018       1   12027   12021   12024       1   12030   12021   12018      35
   12030   12021   12024      35   12030   12021   12027      35   12033   12030
   12021      36   12042   12039   12036       1   12045   12039   12036       1
   12045   12039   12042       1   12048   12039   12036      35   12048   12039
   12042      35   12048   12039   12045      35   12051   12048   12039      36
   12060   12057   12054       1   12063   12057   12054       1   12063   12057
   12060       1   12066   12057   12054      35   12066   12057   12060      35
   12066   12057   12063      35   12069   12066   12057      36   12078   12075
   12072       1   12081   12075   12072       1   12081   12075   12078       1
   12084   12075   12072      35   12084   12075   12078      35   12084   12075
   12081      35   12087   12084   12075      36   12096   12093   12090       1
   12099   12093   12090       1   12099   12093   12096       1   12102   12093
   12090      35   12102   12093   12096      35   12102   12093   12099      35
   12105   12102   12093      36   12114   12111   12108       1   12117   12111
   12108       1   12117   12111   12114       1   12120   12111   12108      35
   12120   12111   12114      35   12120   12111   12117      35   12123   12120
   12111      36   12132   12129   12126       1   12135   12129   12126       1
   12135   12129   12132       1   12138   12129   12126      35   12138   12129
   12132      35   12138   12129   12135      35   12141   12138   12129      36
   12150   12147   12144       1   12153   12147   12144       1   12153   12147
   12150       1   12156   12147   12144      35   12156   12147   12150      35
   12156   12147   12153      35   12159   12156   12147      36   12168   12165
   12162       1   12171   12165   12162       1   12171   12165   12168       1
   12174   12165   12162      35   12174   12165   12168      35   12174   12165
   12171      35   12177   12174   12165      36   12186   12183   12180       1
   12189   12183   12180       1   12189   12183   12186       1   12192   12183
   12180      35   12192   12183   12186      35   12192   12183   12189      35
   12195   12192   12183      36   12204   12201   12198       1   12207   12201
   12198       1   12207   12201   12204       1   12210   12201   12198      35
   12210   12201   12204      35   12210   12201   12207      35   12213   12210
   12201      36   12222   12219   12216       1   12225   12219   12216       1
   12225   12219   12222       1   12228   12219   12216      35   12228   12219
   12222      35   12228   12219   12225      35   12231   12228   12219      36
   12240   12237   12234       1   12243   12237   12234       1   12243   12237
   12240       1   12246   12237   12234      35   12246   12237   12240      35
   12246   12237   12243      35   12249   12246   12237      36   12258   12255
   12252       1   12261   12255   12252       1   12261   12255   12258       1
   12264   12255   12252      35   12264   12255   12258      35   12264   12255
   12261      35   12267   12264   12255      36   12276   12273   12270       1
   12279   12273   12270       1   12279   12273   12276       1   12282   12273
   12270      35   12282   12273   12276      35   12282   12273   12279      35
   12285   12282   12273      36   12294   12291   12288       1   12297   12291
   12288       1   12297   12291   12294       1   12300   12291   12288      35
   12300   12291   12294      35   12300   12291   12297      35   12303   12300
   12291      36   12312   12309   12306       1   12315   12309   12306       1
   12315   12309   12312       1   12318   12309   12306      35   12318   12309
   12312      35   12318   12309   12315      35   12321   12318   12309      36
   12330   12327   12324       1   12333   12327   12324       1   12333   12327
   12330       1   12336   12327   12324      35   12336   12327   12330      35
   12336   12327   12333      35   12339   12336   12327      36   12348   12345
   12342       1   12351   12345   12342       1   12351   12345   12348       1
   12354   12345   12342      35   12354   12345   12348      35   12354   12345
   12351      35   12357   12354   12345      36   12366   12363   12360       1
   12369   12363   12360       1   12369   12363   12366       1   12372   12363
   12360      35   12372   12363   12366      35   12372   12363   12369      35
   12375   12372   12363      36   12384   12381   12378       1   12387   12381
   12378       1   12387   12381   12384       1   12390   12381   12378      35
   12390   12381   12384      35   12390   12381   12387      35   12393   12390
   12381      36   12402   12399   12396       1   12405   12399   12396       1
   12405   12399   12402       1   12408   12399   12396      35   12408   12399
   12402      35   12408   12399   12405      35   12411   12408   12399      36
   12420   12417   12414       1   12423   12417   12414       1   12423   12417
   12420       1   12426   12417   12414      35   12426   12417   12420      35
   12426   12417   12423      35   12429   12426   12417      36   12438   12435
   12432       1   12441   12435   12432       1   12441   12435   12438       1
   12444   12435   12432      35   12444   12435   12438      35   12444   12435
   12441      35   12447   12444   12435      36   12456   12453   12450       1
   12459   12453   12450       1   12459   12453   12456       1   12462   12453
   12450      35   12462   12453   12456      35   12462   12453   12459      35
   12465   12462   12453      36   12474   12471   12468       1   12477   12471
   12468       1   12477   12471   12474       1   12480   12471   12468      35
   12480   12471   12474      35   12480   12471   12477      35   12483   12480
   12471      36   12492   12489   12486       1   12495   12489   12486       1
   12495   12489   12492       1   12498   12489   12486      35   12498   12489
   12492      35   12498   12489   12495      35   12501   12498   12489      36
   12510   12507   12504       1   12513   12507   12504       1   12513   12507
   12510       1   12516   12507   12504      35   12516   12507   12510      35
   12516   12507   12513      35   12519   12516   12507      36   12528   12525
   12522       1   12531   12525   12522       1   12531   12525   12528       1
   12534   12525   12522      35   12534   12525   12528      35   12534   12525
   12531      35   12537   12534   12525      36   12546   12543   12540       1
   12549   12543   12540       1   12549   12543   12546       1   12552   12543
   12540      35   12552   12543   12546      35   12552   12543   12549      35
   12555   12552   12543      36   12564   12561   12558       1   12567   12561
   12558       1   12567   12561   12564       1   12570   12561   12558      35
   12570   12561   12564      35   12570   12561   12567      35   12573   12570
   12561      36   12582   12579   12576       1   12585   12579   12576       1
   12585   12579   12582       1   12588   12579   12576      35   12588   12579
   12582      35   12588   12579   12585      35   12591   12588   12579      36
   12600   12597   12594       1   12603   12597   12594       1   12603   12597
   12600       1   12606   12597   12594      35   12606   12597   12600      35
   12606   12597   12603      35   12609   12606   12597      36   12618   12615
   12612       1   12621   12615   12612       1   12621   12615   12618       1
   12624   12615   12612      35   12624   12615   12618      35   12624   12615
   12621      35   12627   12624   12615      36   12636   12633   12630       1
   12639   12633   12630       1   12639   12633   12636       1   12642   12633
   12630      35   12642   12633   12636      35   12642   12633   12639      35
   12645   12642   12633      36   12654   12651   12648       1   12657   12651
   12648       1   12657   12651   12654       1   12660   12651   12648      35
   12660   12651   12654      35   12660   12651   12657      35   12663   12660
   12651      36   12672   12669   12666       1   12675   12669   12666       1
   12675   12669   12672       1   12678   12669   12666      35   12678   12669
   12672      35   12678   12669   12675      35   12681   12678   12669      36
   12690   12687   12684       1   12693   12687   12684       1   12693   12687
   12690       1   12696   12687   12684      35   12696   12687   12690      35
   12696   12687   12693      35   12699   12696   12687      36   12708   12705
   12702       1   12711   12705   12702       1   12711   12705   12708       1
   12714   12705   12702      35   12714   12705   12708      35   12714   12705
   12711      35   12717   12714   12705      36   12726   12723   12720       1
   12729   12723   12720       1   12729   12723   12726       1   12732   12723
   12720      35   12732   12723   12726      35   12732   12723   12729      35
   12735   12732   12723      36   12744   12741   12738       1   12747   12741
   12738       1   12747   12741   12744       1   12750   12741   12738      35
   12750   12741   12744      35   12750   12741   12747      35   12753   12750
   12741      36   12762   12759   12756       1   12765   12759   12756       1
   12765   12759   12762       1   12768   12759   12756      35   12768   12759
   12762      35   12768   12759   12765      35   12771   12768   12759      36
   12780   12777   12774       1   12783   12777   12774       1   12783   12777
   12780       1   12786   12777   12774      35   12786   12777   12780      35
   12786   12777   12783      35   12789   12786   12777      36   12798   12795
   12792       1   12801   12795   12792       1   12801   12795   12798       1
   12804   12795   12792      35   12804   12795   12798      35   12804   12795
   12801      35   12807   12804   12795      36   12816   12813   12810       1
   12819   12813   12810       1   12819   12813   12816       1   12822   12813
   12810      35   12822   12813   12816      35   12822   12813   12819      35
   12825   12822   12813      36   12834   12831   12828       1   12837   12831
   12828       1   12837   12831   12834       1   12840   12831   12828      35
   12840   12831   12834      35   12840   12831   12837      35   12843   12840
   12831      36   12852   12849   12846       1   12855   12849   12846       1
   12855   12849   12852       1   12858   12849   12846      35   12858   12849
   12852      35   12858   12849   12855      35   12861   12858   12849      36
   12870   12867   12864       1   12873   12867   12864       1   12873   12867
   12870       1   12876   12867   12864      35   12876   12867   12870      35
   12876   12867   12873      35   12879   12876   12867      36   12888   12885
   12882       1   12891   12885   12882       1   12891   12885   12888       1
   12894   12885   12882      35   12894   12885   12888      35   12894   12885
   12891      35   12897   12894   12885      36   12906   12903   12900       1
   12909   12903   12900       1   12909   12903   12906       1   12912   12903
   12900      35   12912   12903   12906      35   12912   12903   12909      35
   12915   12912   12903      36   12924   12921   12918       1   12927   12921
   12918       1   12927   12921   12924       1   12930   12921   12918      35
   12930   12921   12924      35   12930   12921   12927      35   12933   12930
   12921      36   12942   12939   12936       1   12945   12939   12936       1
   12945   12939   12942       1   12948   12939   12936      35   12948   12939
   12942      35   12948   12939   12945      35   12951   12948   12939      36
   12960   12957   12954       1   12963   12957   12954       1   12963   12957
   12960       1   12966   12957   12954      35   12966   12957   12960      35
   12966   12957   12963      35   12969   12966   12957      36   12978   12975
   12972       1   12981   12975   12972       1   12981   12975   12978       1
   12984   12975   12972      35   12984   12975   12978      35   12984   12975
   12981      35   12987   12984   12975      36   12996   12993   12990       1
   12999   12993   12990       1   12999   12993   12996       1   13002   12993
   12990      35   13002   12993   12996      35   13002   12993   12999      35
   13005   13002   12993      36   13014   13011   13008       1   13017   13011
   13008       1   13017   13011   13014       1   13020   13011   13008      35
   13020   13011   13014      35   13020   13011   13017      35   13023   13020
   13011      36   13032   13029   13026       1   13035   13029   13026       1
   13035   13029   13032       1   13038   13029   13026      35   13038   13029
   13032      35   13038   13029   13035      35   13041   13038   13029      36
   13050   13047   13044       1   13053   13047   13044       1   13053   13047
   13050       1   13056   13047   13044      35   13056   13047   13050      35
   13056   13047   13053      35   13059   13056   13047      36   13068   13065
   13062       1   13071   13065   13062       1   13071   13065   13068       1
   13074   13065   13062      35   13074   13065   13068      35   13074   13065
   13071      35   13077   13074   13065      36   13086   13083   13080       1
   13089   13083   13080       1   13089   13083   13086       1   13092   13083
   13080      35   13092   13083   13086      35   13092   13083   13089      35
   13095   13092   13083      36   13104   13101   13098       1   13107   13101
   13098       1   13107   13101   13104       1   13110   13101   13098      35
   13110   13101   13104      35   13110   13101   13107      35   13113   13110
   13101      36   13122   13119   13116       1   13125   13119   13116       1
   13125   13119   13122       1   13128   13119   13116      35   13128   13119
   13122      35   13128   13119   13125      35   13131   13128   13119      36
   13140   13137   13134       1   13143   13137   13134       1   13143   13137
   13140       1   13146   13137   13134      35   13146   13137   13140      35
   13146   13137   13143      35   13149   13146   13137      36   13158   13155
   13152       1   13161   13155   13152       1   13161   13155   13158       1
   13164   13155   13152      35   13164   13155   13158      35   13164   13155
   13161      35   13167   13164   13155      36   13176   13173   13170       1
   13179   13173   13170       1   13179   13173   13176       1   13182   13173
   13170      35   13182   13173   13176      35   13182   13173   13179      35
   13185   13182   13173      36   13194   13191   13188       1   13197   13191
   13188       1   13197   13191   13194       1   13200   13191   13188      35
   13200   13191   13194      35   13200   13191   13197      35   13203   13200
   13191      36   13212   13209   13206       1   13215   13209   13206       1
   13215   13209   13212       1   13218   13209   13206      35   13218   13209
   13212      35   13218   13209   13215      35   13221   13218   13209      36
   13230   13227   13224       1   13233   13227   13224       1   13233   13227
   13230       1   13236   13227   13224      35   13236   13227   13230      35
   13236   13227   13233      35   13239   13236   13227      36   13248   13245
   13242       1   13251   13245   13242       1   13251   13245   13248       1
   13254   13245   13242      35   13254   13245   13248      35   13254   13245
   13251      35   13257   13254   13245      36   13266   13263   13260       1
   13269   13263   13260       1   13269   13263   13266       1   13272   13263
   13260      35   13272   13263   13266      35   13272   13263   13269      35
   13275   13272   13263      36   13284   13281   13278       1   13287   13281
   13278       1   13287   13281   13284       1   13290   13281   13278      35
   13290   13281   13284      35   13290   13281   13287      35   13293   13290
   13281      36   13302   13299   13296       1   13305   13299   13296       1
   13305   13299   13302       1   13308   13299   13296      35   13308   13299
   13302      35   13308   13299   13305      35   13311   13308   13299      36
   13320   13317   13314       1   13323   13317   13314       1   13323   13317
   13320       1   13326   13317   13314      35   13326   13317   13320      35
   13326   13317   13323      35   13329   13326   13317      36   13338   13335
   13332       1   13341   13335   13332       1   13341   13335   13338       1
   13344   13335   13332      35   13344   13335   13338      35   13344   13335
   13341      35   13347   13344   13335      36   13356   13353   13350       1
   13359   13353   13350       1   13359   13353   13356       1   13362   13353
   13350      35   13362   13353   13356      35   13362   13353   13359      35
   13365   13362   13353      36   13374   13371   13368       1   13377   13371
   13368       1   13377   13371   13374       1   13380   13371   13368      35
   13380   13371   13374      35   13380   13371   13377      35   13383   13380
   13371      36   13392   13389   13386       1   13395   13389   13386       1
   13395   13389   13392       1   13398   13389   13386      35   13398   13389
   13392      35   13398   13389   13395      35   13401   13398   13389      36
   13410   13407   13404       1   13413   13407   13404       1   13413   13407
   13410       1   13416   13407   13404      35   13416   13407   13410      35
   13416   13407   13413      35   13419   13416   13407      36   13428   13425
   13422       1   13431   13425   13422       1   13431   13425   13428       1
   13434   13425   13422      35   13434   13425   13428      35   13434   13425
   13431      35   13437   13434   13425      36   13446   13443   13440       1
   13449   13443   13440       1   13449   13443   13446       1   13452   13443
   13440      35   13452   13443   13446      35   13452   13443   13449      35
   13455   13452   13443      36   13464   13461   13458       1   13467   13461
   13458       1   13467   13461   13464       1   13470   13461   13458      35
   13470   13461   13464      35   13470   13461   13467      35   13473   13470
   13461      36   13482   13479   13476       1   13485   13479   13476       1
   13485   13479   13482       1   13488   13479   13476      35   13488   13479
   13482      35   13488   13479   13485      35   13491   13488   13479      36
   13500   13497   13494       1   13503   13497   13494       1   13503   13497
   13500       1   13506   13497   13494      35   13506   13497   13500      35
   13506   13497   13503      35   13509   13506   13497      36   13518   13515
   13512       1   13521   13515   13512       1   13521   13515   13518       1
   13524   13515   13512      35   13524   13515   13518      35   13524   13515
   13521      35   13527   13524   13515      36   13536   13533   13530       1
   13539   13533   13530       1   13539   13533   13536       1   13542   13533
   13530      35   13542   13533   13536      35   13542   13533   13539      35
   13545   13542   13533      36   13554   13551   13548       1   13557   13551
   13548       1   13557   13551   13554       1   13560   13551   13548      35
   13560   13551   13554      35   13560   13551   13557      35   13563   13560
   13551      36   13572   13569   13566       1   13575   13569   13566       1
   13575   13569   13572       1   13578   13569   13566      35   13578   13569
   13572      35   13578   13569   13575      35   13581   13578   13569      36
   13590   13587   13584       1   13593   13587   13584       1   13593   13587
   13590       1   13596   13587   13584      35   13596   13587   13590      35
   13596   13587   13593      35   13599   13596   13587      36   13608   13605
   13602       1   13611   13605   13602       1   13611   13605   13608       1
   13614   13605   13602      35   13614   13605   13608      35   13614   13605
   13611      35   13617   13614   13605      36   13626   13623   13620       1
   13629   13623   13620       1   13629   13623   13626       1   13632   13623
   13620      35   13632   13623   13626      35   13632   13623   13629      35
   13635   13632   13623      36   13644   13641   13638       1   13647   13641
   13638       1   13647   13641   13644       1   13650   13641   13638      35
   13650   13641   13644      35   13650   13641   13647      35   13653   13650
   13641      36   13662   13659   13656       1   13665   13659   13656       1
   13665   13659   13662       1   13668   13659   13656      35   13668   13659
   13662      35   13668   13659   13665      35   13671   13668   13659      36
   13680   13677   13674       1   13683   13677   13674       1   13683   13677
   13680       1   13686   13677   13674      35   13686   13677   13680      35
   13686   13677   13683      35   13689   13686   13677      36   13698   13695
   13692       1   13701   13695   13692       1   13701   13695   13698       1
   13704   13695   13692      35   13704   13695   13698      35   13704   13695
   13701      35   13707   13704   13695      36   13716   13713   13710       1
   13719   13713   13710       1   13719   13713   13716       1   13722   13713
   13710      35   13722   13713   13716      35   13722   13713   13719      35
   13725   13722   13713      36   13734   13731   13728       1   13737   13731
   13728       1   13737   13731   13734       1   13740   13731   13728      35
   13740   13731   13734      35   13740   13731   13737      35   13743   13740
   13731      36   13752   13749   13746       1   13755   13749   13746       1
   13755   13749   13752       1   13758   13749   13746      35   13758   13749
   13752      35   13758   13749   13755      35   13761   13758   13749      36
   13770   13767   13764       1   13773   13767   13764       1   13773   13767
   13770       1   13776   13767   13764      35   13776   13767   13770      35
   13776   13767   13773      35   13779   13776   13767      36   13788   13785
   13782       1   13791   13785   13782       1   13791   13785   13788       1
   13794   13785   13782      35   13794   13785   13788      35   13794   13785
   13791      35   13797   13794   13785      36   13806   13803   13800       1
   13809   13803   13800       1   13809   13803   13806       1   13812   13803
   13800      35   13812   13803   13806      35   13812   13803   13809      35
   13815   13812   13803      36   13824   13821   13818       1   13827   13821
   13818       1   13827   13821   13824       1   13830   13821   13818      35
   13830   13821   13824      35   13830   13821   13827      35   13833   13830
   13821      36   13842   13839   13836       1   13845   13839   13836       1
   13845   13839   13842       1   13848   13839   13836      35   13848   13839
   13842      35   13848   13839   13845      35   13851   13848   13839      36
   13860   13857   13854       1   13863   13857   13854       1   13863   13857
   13860       1   13866   13857   13854      35   13866   13857   13860      35
   13866   13857   13863      35   13869   13866   13857      36   13878   13875
   13872       1   13881   13875   13872       1   13881   13875   13878       1
   13884   13875   13872      35   13884   13875   13878      35   13884   13875
   13881      35   13887   13884   13875      36   13896   13893   13890       1
   13899   13893   13890       1   13899   13893   13896       1   13902   13893
   13890      35   13902   13893   13896      35   13902   13893   13899      35
   13905   13902   13893      36   13914   13911   13908       1   13917   13911
   13908       1   13917   13911   13914       1   13920   13911   13908      35
   13920   13911   13914      35   13920   13911   13917      35   13923   13920
   13911      36   13932   13929   13926       1   13935   13929   13926       1
   13935   13929   13932       1   13938   13929   13926      35   13938   13929
   13932      35   13938   13929   13935      35   13941   13938   13929      36
   13950   13947   13944       1   13953   13947   13944       1   13953   13947
   13950       1   13956   13947   13944      35   13956   13947   13950      35
   13956   13947   13953      35   13959   13956   13947      36   13968   13965
   13962       1   13971   13965   13962       1   13971   13965   13968       1
   13974   13965   13962      35   13974   13965   13968      35   13974   13965
   13971      35   13977   13974   13965      36   13986   13983   13980       1
   13989   13983   13980       1   13989   13983   13986       1   13992   13983
   13980      35   13992   13983   13986      35   13992   13983   13989      35
   13995   13992   13983      36   14004   14001   13998       1   14007   14001
   13998       1   14007   14001   14004       1   14010   14001   13998      35
   14010   14001   14004      35   14010   14001   14007      35   14013   14010
   14001      36   14022   14019   14016       1   14025   14019   14016       1
   14025   14019   14022       1   14028   14019   14016      35   14028   14019
   14022      35   14028   14019   14025      35   14031   14028   14019      36
   14040   14037   14034       1   14043   14037   14034       1   14043   14037
   14040       1   14046   14037   14034      35   14046   14037   14040      35
   14046   14037   14043      35   14049   14046   14037      36   14058   14055
   14052       1   14061   14055   14052       1   14061   14055   14058       1
   14064   14055   14052      35   14064   14055   14058      35   14064   14055
   14061      35   14067   14064   14055      36   14076   14073   14070       1
   14079   14073   14070       1   14079   14073   14076       1   14082   14073
   14070      35   14082   14073   14076      35   14082   14073   14079      35
   14085   14082   14073      36   14094   14091   14088       1   14097   14091
   14088       1   14097   14091   14094       1   14100   14091   14088      35
   14100   14091   14094      35   14100   14091   14097      35   14103   14100
   14091      36   14112   14109   14106       1   14115   14109   14106       1
   14115   14109   14112       1   14118   14109   14106      35   14118   14109
   14112      35   14118   14109   14115      35   14121   14118   14109      36
   14130   14127   14124       1   14133   14127   14124       1   14133   14127
   14130       1   14136   14127   14124      35   14136   14127   14130      35
   14136   14127   14133      35   14139   14136   14127      36   14148   14145
   14142       1   14151   14145   14142       1   14151   14145   14148       1
   14154   14145   14142      35   14154   14145   14148      35   14154   14145
   14151      35   14157   14154   14145      36   14166   14163   14160       1
   14169   14163   14160       1   14169   14163   14166       1   14172   14163
   14160      35   14172   14163   14166      35   14172   14163   14169      35
   14175   14172   14163      36   14184   14181   14178       1   14187   14181
   14178       1   14187   14181   14184       1   14190   14181   14178      35
   14190   14181   14184      35   14190   14181   14187      35   14193   14190
   14181      36   14202   14199   14196       1   14205   14199   14196       1
   14205   14199   14202       1   14208   14199   14196      35   14208   14199
   14202      35   14208   14199   14205      35   14211   14208   14199      36
   14220   14217   14214       1   14223   14217   14214       1   14223   14217
   14220       1   14226   14217   14214      35   14226   14217   14220      35
   14226   14217   14223      35   14229   14226   14217      36   14238   14235
   14232       1   14241   14235   14232       1   14241   14235   14238       1
   14244   14235   14232      35   14244   14235   14238      35   14244   14235
   14241      35   14247   14244   14235      36   14256   14253   14250       1
   14259   14253   14250       1   14259   14253   14256       1   14262   14253
   14250      35   14262   14253   14256      35   14262   14253   14259      35
   14265   14262   14253      36   14274   14271   14268       1   14277   14271
   14268       1   14277   14271   14274       1   14280   14271   14268      35
   14280   14271   14274      35   14280   14271   14277      35   14283   14280
   14271      36   14292   14289   14286       1   14295   14289   14286       1
   14295   14289   14292       1   14298   14289   14286      35   14298   14289
   14292      35   14298   14289   14295      35   14301   14298   14289      36
   14310   14307   14304       1   14313   14307   14304       1   14313   14307
   14310       1   14316   14307   14304      35   14316   14307   14310      35
   14316   14307   14313      35   14319   14316   14307      36   14328   14325
   14322       1   14331   14325   14322       1   14331   14325   14328       1
   14334   14325   14322      35   14334   14325   14328      35   14334   14325
   14331      35   14337   14334   14325      36   14346   14343   14340       1
   14349   14343   14340       1   14349   14343   14346       1   14352   14343
   14340      35   14352   14343   14346      35   14352   14343   14349      35
   14355   14352   14343      36   14364   14361   14358       1   14367   14361
   14358       1   14367   14361   14364       1   14370   14361   14358      35
   14370   14361   14364      35   14370   14361   14367      35   14373   14370
   14361      36   14382   14379   14376       1   14385   14379   14376       1
   14385   14379   14382       1   14388   14379   14376      35   14388   14379
   14382      35   14388   14379   14385      35   14391   14388   14379      36
   14400   14397   14394       1   14403   14397   14394       1   14403   14397
   14400       1   14406   14397   14394      35   14406   14397   14400      35
   14406   14397   14403      35   14409   14406   14397      36   14418   14415
   14412       1   14421   14415   14412       1   14421   14415   14418       1
   14424   14415   14412      35   14424   14415   14418      35   14424   14415
   14421      35   14427   14424   14415      36   14436   14433   14430       1
   14439   14433   14430       1   14439   14433   14436       1   14442   14433
   14430      35   14442   14433   14436      35   14442   14433   14439      35
   14445   14442   14433      36   14454   14451   14448       1   14457   14451
   14448       1   14457   14451   14454       1   14460   14451   14448      35
   14460   14451   14454      35   14460   14451   14457      35   14463   14460
   14451      36   14472   14469   14466       1   14475   14469   14466       1
   14475   14469   14472       1   14478   14469   14466      35   14478   14469
   14472      35   14478   14469   14475      35   14481   14478   14469      36
   14490   14487   14484       1   14493   14487   14484       1   14493   14487
   14490       1   14496   14487   14484      35   14496   14487   14490      35
   14496   14487   14493      35   14499   14496   14487      36   14508   14505
   14502       1   14511   14505   14502       1   14511   14505   14508       1
   14514   14505   14502      35   14514   14505   14508      35   14514   14505
   14511      35   14517   14514   14505      36   14526   14523   14520       1
   14529   14523   14520       1   14529   14523   14526       1   14532   14523
   14520      35   14532   14523   14526      35   14532   14523   14529      35
   14535   14532   14523      36   14544   14541   14538       1   14547   14541
   14538       1   14547   14541   14544       1   14550   14541   14538      35
   14550   14541   14544      35   14550   14541   14547      35   14553   14550
   14541      36   14562   14559   14556       1   14565   14559   14556       1
   14565   14559   14562       1   14568   14559   14556      35   14568   14559
   14562      35   14568   14559   14565      35   14571   14568   14559      36
   14580   14577   14574       1   14583   14577   14574       1   14583   14577
   14580       1   14586   14577   14574      35   14586   14577   14580      35
   14586   14577   14583      35   14589   14586   14577      36   14598   14595
   14592       1   14601   14595   14592       1   14601   14595   14598       1
   14604   14595   14592      35   14604   14595   14598      35   14604   14595
   14601      35   14607   14604   14595      36   14616   14613   14610       1
   14619   14613   14610       1   14619   14613   14616       1   14622   14613
   14610      35   14622   14613   14616      35   14622   14613   14619      35
   14625   14622   14613      36   14634   14631   14628       1   14637   14631
   14628       1   14637   14631   14634       1   14640   14631   14628      35
   14640   14631   14634      35   14640   14631   14637      35   14643   14640
   14631      36   14652   14649   14646       1   14655   14649   14646       1
   14655   14649   14652       1   14658   14649   14646      35   14658   14649
   14652      35   14658   14649   14655      35   14661   14658   14649      36
   14670   14667   14664       1   14673   14667   14664       1   14673   14667
   14670       1   14676   14667   14664      35   14676   14667   14670      35
   14676   14667   14673      35   14679   14676   14667      36   14688   14685
   14682       1   14691   14685   14682       1   14691   14685   14688       1
   14694   14685   14682      35   14694   14685   14688      35   14694   14685
   14691      35   14697   14694   14685      36   14706   14703   14700       1
   14709   14703   14700       1   14709   14703   14706       1   14712   14703
   14700      35   14712   14703   14706      35   14712   14703   14709      35
   14715   14712   14703      36   14724   14721   14718       1   14727   14721
   14718       1   14727   14721   14724       1   14730   14721   14718      35
   14730   14721   14724      35   14730   14721   14727      35   14733   14730
   14721      36   14742   14739   14736       1   14745   14739   14736       1
   14745   14739   14742       1   14748   14739   14736      35   14748   14739
   14742      35   14748   14739   14745      35   14751   14748   14739      36
   14760   14757   14754       1   14763   14757   14754       1   14763   14757
   14760       1   14766   14757   14754      35   14766   14757   14760      35
   14766   14757   14763      35   14769   14766   14757      36   14778   14775
   14772       1   14781   14775   14772       1   14781   14775   14778       1
   14784   14775   14772      35   14784   14775   14778      35   14784   14775
   14781      35   14787   14784   14775      36   14796   14793   14790       1
   14799   14793   14790       1   14799   14793   14796       1   14802   14793
   14790      35   14802   14793   14796      35   14802   14793   14799      35
   14805   14802   14793      36   14814   14811   14808       1   14817   14811
   14808       1   14817   14811   14814       1   14820   14811   14808      35
   14820   14811   14814      35   14820   14811   14817      35   14823   14820
   14811      36   14832   14829   14826       1   14835   14829   14826       1
   14835   14829   14832       1   14838   14829   14826      35   14838   14829
   14832      35   14838   14829   14835      35   14841   14838   14829      36
   14850   14847   14844       1   14853   14847   14844       1   14853   14847
   14850       1   14856   14847   14844      35   14856   14847   14850      35
   14856   14847   14853      35   14859   14856   14847      36   14868   14865
   14862       1   14871   14865   14862       1   14871   14865   14868       1
   14874   14865   14862      35   14874   14865   14868      35   14874   14865
   14871      35   14877   14874   14865      36   14886   14883   14880       1
   14889   14883   14880       1   14889   14883   14886       1   14892   14883
   14880      35   14892   14883   14886      35   14892   14883   14889      35
   14895   14892   14883      36   14904   14901   14898       1   14907   14901
   14898       1   14907   14901   14904       1   14910   14901   14898      35
   14910   14901   14904      35   14910   14901   14907      35   14913   14910
   14901      36   14922   14919   14916       1   14925   14919   14916       1
   14925   14919   14922       1   14928   14919   14916      35   14928   14919
   14922      35   14928   14919   14925      35   14931   14928   14919      36
   14940   14937   14934       1   14943   14937   14934       1   14943   14937
   14940       1   14946   14937   14934      35   14946   14937   14940      35
   14946   14937   14943      35   14949   14946   14937      36   14958   14955
   14952       1   14961   14955   14952       1   14961   14955   14958       1
   14964   14955   14952      35   14964   14955   14958      35   14964   14955
   14961      35   14967   14964   14955      36   14976   14973   14970       1
   14979   14973   14970       1   14979   14973   14976       1   14982   14973
   14970      35   14982   14973   14976      35   14982   14973   14979      35
   14985   14982   14973      36   14994   14991   14988       1   14997   14991
   14988       1   14997   14991   14994       1   15000   14991   14988      35
   15000   14991   14994      35   15000   14991   14997      35   15003   15000
   14991      36   15012   15009   15006       1   15015   15009   15006       1
   15015   15009   15012       1   15018   15009   15006      35   15018   15009
   15012      35   15018   15009   15015      35   15021   15018   15009      36
   15030   15027   15024       1   15033   15027   15024       1   15033   15027
   15030       1   15036   15027   15024      35   15036   15027   15030      35
   15036   15027   15033      35   15039   15036   15027      36   15048   15045
   15042       1   15051   15045   15042       1   15051   15045   15048       1
   15054   15045   15042      35   15054   15045   15048      35   15054   15045
   15051      35   15057   15054   15045      36   15066   15063   15060       1
   15069   15063   15060       1   15069   15063   15066       1   15072   15063
   15060      35   15072   15063   15066      35   15072   15063   15069      35
   15075   15072   15063      36   15084   15081   15078       1   15087   15081
   15078       1   15087   15081   15084       1   15090   15081   15078      35
   15090   15081   15084      35   15090   15081   15087      35   15093   15090
   15081      36   15102   15099   15096       1   15105   15099   15096       1
   15105   15099   15102       1   15108   15099   15096      35   15108   15099
   15102      35   15108   15099   15105      35   15111   15108   15099      36
   15120   15117   15114       1   15123   15117   15114       1   15123   15117
   15120       1   15126   15117   15114      35   15126   15117   15120      35
   15126   15117   15123      35   15129   15126   15117      36   15138   15135
   15132       1   15141   15135   15132       1   15141   15135   15138       1
   15144   15135   15132      35   15144   15135   15138      35   15144   15135
   15141      35   15147   15144   15135      36   15156   15153   15150       1
   15159   15153   15150       1   15159   15153   15156       1   15162   15153
   15150      35   15162   15153   15156      35   15162   15153   15159      35
   15165   15162   15153      36   15174   15171   15168       1   15177   15171
   15168       1   15177   15171   15174       1   15180   15171   15168      35
   15180   15171   15174      35   15180   15171   15177      35   15183   15180
   15171      36   15192   15189   15186       1   15195   15189   15186       1
   15195   15189   15192       1   15198   15189   15186      35   15198   15189
   15192      35   15198   15189   15195      35   15201   15198   15189      36
   15210   15207   15204       1   15213   15207   15204       1   15213   15207
   15210       1   15216   15207   15204      35   15216   15207   15210      35
   15216   15207   15213      35   15219   15216   15207      36   15228   15225
   15222       1   15231   15225   15222       1   15231   15225   15228       1
   15234   15225   15222      35   15234   15225   15228      35   15234   15225
   15231      35   15237   15234   15225      36   15246   15243   15240       1
   15249   15243   15240       1   15249   15243   15246       1   15252   15243
   15240      35   15252   15243   15246      35   15252   15243   15249      35
   15255   15252   15243      36   15264   15261   15258       1   15267   15261
   15258       1   15267   15261   15264       1   15270   15261   15258      35
   15270   15261   15264      35   15270   15261   15267      35   15273   15270
   15261      36   15282   15279   15276       1   15285   15279   15276       1
   15285   15279   15282       1   15288   15279   15276      35   15288   15279
   15282      35   15288   15279   15285      35   15291   15288   15279      36
   15300   15297   15294       1   15303   15297   15294       1   15303   15297
   15300       1   15306   15297   15294      35   15306   15297   15300      35
   15306   15297   15303      35   15309   15306   15297      36   15318   15315
   15312       1   15321   15315   15312       1   15321   15315   15318       1
   15324   15315   15312      35   15324   15315   15318      35   15324   15315
   15321      35   15327   15324   15315      36   15336   15333   15330       1
   15339   15333   15330       1   15339   15333   15336       1   15342   15333
   15330      35   15342   15333   15336      35   15342   15333   15339      35
   15345   15342   15333      36   15354   15351   15348       1   15357   15351
   15348       1   15357   15351   15354       1   15360   15351   15348      35
   15360   15351   15354      35   15360   15351   15357      35   15363   15360
   15351      36   15372   15369   15366       1   15375   15369   15366       1
   15375   15369   15372       1   15378   15369   15366      35   15378   15369
   15372      35   15378   15369   15375      35   15381   15378   15369      36
   15390   15387   15384       1   15393   15387   15384       1   15393   15387
   15390       1   15396   15387   15384      35   15396   15387   15390      35
   15396   15387   15393      35   15399   15396   15387      36   15408   15405
   15402       1   15411   15405   15402       1   15411   15405   15408       1
   15414   15405   15402      35   15414   15405   15408      35   15414   15405
   15411      35   15417   15414   15405      36   15426   15423   15420       1
   15429   15423   15420       1   15429   15423   15426       1   15432   15423
   15420      35   15432   15423   15426      35   15432   15423   15429      35
   15435   15432   15423      36   15444   15441   15438       1   15447   15441
   15438       1   15447   15441   15444       1   15450   15441   15438      35
   15450   15441   15444      35   15450   15441   15447      35   15453   15450
   15441      36   15462   15459   15456       1   15465   15459   15456       1
   15465   15459   15462       1   15468   15459   15456      35   15468   15459
   15462      35   15468   15459   15465      35   15471   15468   15459      36
   15480   15477   15474       1   15483   15477   15474       1   15483   15477
   15480       1   15486   15477   15474      35   15486   15477   15480      35
   15486   15477   15483      35   15489   15486   15477      36   15498   15495
   15492       1   15501   15495   15492       1   15501   15495   15498       1
   15504   15495   15492      35   15504   15495   15498      35   15504   15495
   15501      35   15507   15504   15495      36   15516   15513   15510       1
   15519   15513   15510       1   15519   15513   15516       1   15522   15513
   15510      35   15522   15513   15516      35   15522   15513   15519      35
   15525   15522   15513      36   15534   15531   15528       1   15537   15531
   15528       1   15537   15531   15534       1   15540   15531   15528      35
   15540   15531   15534      35   15540   15531   15537      35   15543   15540
   15531      36   15552   15549   15546       1   15555   15549   15546       1
   15555   15549   15552       1   15558   15549   15546      35   15558   15549
   15552      35   15558   15549   15555      35   15561   15558   15549      36
   15570   15567   15564       1   15573   15567   15564       1   15573   15567
   15570       1   15576   15567   15564      35   15576   15567   15570      35
   15576   15567   15573      35   15579   15576   15567      36   15588   15585
   15582       1   15591   15585   15582       1   15591   15585   15588       1
   15594   15585   15582      35   15594   15585   15588      35   15594   15585
   15591      35   15597   15594   15585      36   15606   15603   15600       1
   15609   15603   15600       1   15609   15603   15606       1   15612   15603
   15600      35   15612   15603   15606      35   15612   15603   15609      35
   15615   15612   15603      36   15624   15621   15618       1   15627   15621
   15618       1   15627   15621   15624       1   15630   15621   15618      35
   15630   15621   15624      35   15630   15621   15627      35   15633   15630
   15621      36
%FLAG ANGLES_WITHOUT_HYDROGEN                                                   
%FORMAT(10I8)                                                                   
      60      39      75       2      48      45      60       3      42      39
      60       5      42      39      75       6      39      60      45       7
      39      75      78       9      39      75      90       9      15      12
      45       6      12       6      18      12      12      45      48       9
      12      45      60       9       6       0     441      15       6      12
      15      16       6      12      45      17       6      18      27      19
       0       6      12      23       0       6      18      24       0     441
     444       6       0     441     462       2     111     105     123      25
      96     105     111      25      96     105     123      25      90      69
     135       2      90      96     105      25      78      75      90       3
      75      90      96      27      72      69      90       5      72      69
     135       6      69      90      75       7      69      90      96      28
      69     135     141      15     225     219     237      25     210     219
     225      25     210     219     237      25     204     183     249       2
     204     210     219      25     192     189     204       3     189     204
     210      27     186     183     204       5     186     183     249       6
     183     204     189       7     183     204     210      28     183     249
     255      15     159     153     171      25     150     147     189       6
     147     141     153      12     147     189     192       9     147     189
     204       9     141     147     150      16     141     147     189      17
     141     153     159      19     141     153     171      19     135     141
     147      23     135     141     153      24     276     273     285       6
     273     285     291      15     261     255     273      12     255     273
     276      16     255     273     285      17     249     255     261      24
     249     255     273      23     291     279     315      17     285     291
     297      24     282     279     291      16     282     279     315       6
     279     291     285      23     279     291     297      12     279     315
     318       9     279     315     330       9     417     411     429      25
     402     411     417      25     402     411     429      25     396     375
     537       2     396     402     411      25     384     381     396       3
     381     396     402      27     378     375     396       5     378     375
     537       6     375     396     381       7     375     396     402      28
     375     537     540       9     375     537     552       9     351     345
     363      25     336     345     351      25     336     345     363      25
     330     309     381       2     330     336     345      25     318     315
     330       3     315     330     336      27     312     309     330       5
     312     309     381       6     309     330     315       7     309     330
     336      28     309     381     384       9     309     381     396       9
     564     558     576      25     552     558     564      25     552     558
     576      25     540     537     552       3     537     552     558      27
     534     531     552       5     531     552     537       7     531     552
     558      28     504     513     519      25     486     480     504      30
     480     486     492      30     480     504     513      33     474     468
     513      34     468     513     504      25     468     513     519      25
     462     447     531       9     462     468     474      34     462     468
     513      25     450     447     462       3     450     447     531       9
     447     462     468      27     447     531     534       6     447     531
     552       2     444     441     462       5     441     462     447       7
     441     462     468      28
%FLAG DIHEDRALS_INC_HYDROGEN                                                    
%FORMAT(10I8)                                                                   
      66      60      39      75       1      63      60      39      75       1
      57      48      45      60       1      54      48      45      60       1
      51      48      45      60       1      48      45      60      63       1
      48      45      60      66       1      42      39      60      63       3
      42      39     -60      63       1      42      39     -60      63       4
      42      39      60      66       3      42      39     -60      66       1
      42      39     -60      66       4      39      75      78      81       1
      39      75      78      84       1      39      75      78      87       1
      39      75      90      93       1      24      18      27      30      10
      24      18      27      33      10      24      18      27      36      10
      21      18      27      30      10      21      18      27      33      10
      21      18      27      36      10      12       6      18      21      16
      12       6      18      24      16      12      45      48      51       1
      12      45      48      54       1      12      45      48      57       1
      12      45      60      63       1      12      45      60      66       1
     441       0       6       9       1       9       6      12      15       3
       9       6     -12      15       1       9       6     -12      15       4
       9       6      12      45       1       9       6      18      21      16
       9       6      18      24      16       9       6      18      27      16
       6      18      27      30      17       6      18      27      33      17
       6      18      27      36      17       3       0       6       9       1
       3       0       6      12       1       3       0       6      18       1
       3       0     441     444       6       3       0    -441     444       2
       3       0     441     462       2       0       6      18      21      16
       0       6      18      24      16       0     441     462     465       1
     120     111     105     123      17     117     111     105     123      17
     114     111     105     123      17     111     105     123     126      17
     111     105     123     129      17     111     105     123     132      17
     108     105     111     114      10     108     105     111     117      10
     108     105     111     120      10     108     105     123     126      10
     108     105     123     129      10     108     105     123     132      10
     102      96     105     108      10     102      96     105     111      17
     102      96     105     123      17      99      96     105     108      10
      99      96     105     111      17      99      96     105     123      17
      96     105     111     114      17      96     105     111     117      17
      96     105     111     120      17      96     105     123     126      17
      96     105     123     129      17      96     105     123     132      17
      93      90      69     135       1      93      90      96      99      16
      93      90      96     102      16      93      90      96     105      16
      90      69     135     138       2      90      96     105     108      17
      87      78      75      90       1      84      78      75      90       1
      81      78      75      90       1      78      75      90      93       1
      75      90      96      99      16      75      90      96     102      16
      72      69      90      93       3      72      69     -90      93       1
      72      69     -90      93       4      72      69     135     138       6
      72      69    -135     138       2      69      90      96      99      16
      69      90      96     102      16      69     135     141     144       1
     234     225     219     237      17     231     225     219     237      17
     228     225     219     237      17     225     219     237     240      17
     225     219     237     243      17     225     219     237     246      17
     222     219     225     228      10     222     219     225     231      10
     222     219     225     234      10     222     219     237     240      10
     222     219     237     243      10     222     219     237     246      10
     216     210     219     222      10     216     210     219     225      17
     216     210     219     237      17     213     210     219     222      10
     213     210     219     225      17     213     210     219     237      17
     210     219     225     228      17     210     219     225     231      17
     210     219     225     234      17     210     219     237     240      17
     210     219     237     243      17     210     219     237     246      17
     207     204     183     249       1     207     204     210     213      16
     207     204     210     216      16     207     204     210     219      16
     204     183     249     252       2     204     210     219     222      17
     201     192     189     204       1     198     192     189     204       1
     195     192     189     204       1     192     189     204     207       1
     189     204     210     213      16     189     204     210     216      16
     186     183     204     207       3     186     183    -204     207       1
     186     183    -204     207       4     186     183     249     252       6
     186     183    -249     252       2     183     204     210     213      16
     183     204     210     216      16     183     249     255     258       1
     168     159     153     171      17     165     159     153     171      17
     162     159     153     171      17     159     153     171     174      17
     159     153     171     177      17     159     153     171     180      17
     156     153     159     162      10     156     153     159     165      10
     156     153     159     168      10     156     153     171     174      10
     156     153     171     177      10     156     153     171     180      10
     147     141     153     156      16     147     189     192     195       1
     147     189     192     198       1     147     189     192     201       1
     147     189     204     207       1     144     141     147     150       3
     144     141    -147     150       1     144     141    -147     150       4
     144     141     147     189       1     144     141     153     156      16
     144     141     153     159      16     144     141     153     171      16
     141     153     159     162      17     141     153     159     165      17
     141     153     159     168      17     141     153     171     174      17
     141     153     171     177      17     141     153     171     180      17
     138     135     141     144       1     138     135     141     147       1
     138     135     141     153       1     135     141     153     156      16
     276     273     285     288       6     276     273    -285     288       2
     273     285     291     294       1     270     261     255     273      16
     267     261     255     273      16     264     261     255     273      16
     258     255     261     264      16     258     255     261     267      16
     258     255     261     270      16     258     255     273     276       3
     258     255    -273     276       1     258     255    -273     276       4
     258     255     273     285       1     255     273     285     288       2
     252     249     255     258       1     252     249     255     261       1
     252     249     255     273       1     249     255     261     264      16
     249     255     261     267      16     249     255     261     270      16
     294     291     279     315       1     294     291     297     300      16
     294     291     297     303      16     294     291     297     306      16
     288     285     291     294       1     288     285     291     297       1
     285     291     297     300      16     285     291     297     303      16
     285     291     297     306      16     282     279     291     294       3
     282     279    -291     294       1     282     279    -291     294       4
     279     291     285     288       1     279     291     297     300      16
     279     291     297     303      16     279     291     297     306      16
     279     315     318     321       1     279     315     318     324       1
     279     315     318     327       1     279     315     330     333       1
     426     417     411     429      17     423     417     411     429      17
     420     417     411     429      17     417     411     429     432      17
     417     411     429     435      17     417     411     429     438      17
     414     411     417     420      10     414     411     417     423      10
     414     411     417     426      10     414     411     429     432      10
     414     411     429     435      10     414     411     429     438      10
     408     402     411     414      10     408     402     411     417      17
     408     402     411     429      17     405     402     411     414      10
     405     402     411     417      17     405     402     411     429      17
     402     411     417     420      17     402     411     417     423      17
     402     411     417     426      17     402     411     429     432      17
     402     411     429     435      17     402     411     429     438      17
     399     396     375     537       1     399     396     402     405      16
     399     396     402     408      16     399     396     402     411      16
     396     402     411     414      17     393     384     381     396       1
     390     384     381     396       1     387     384     381     396       1
     384     381     396     399       1     381     396     402     405      16
     381     396     402     408      16     378     375     396     399       3
     378     375    -396     399       1     378     375    -396     399       4
     375     396     402     405      16     375     396     402     408      16
     375     537     540     543       1     375     537     540     546       1
     375     537     540     549       1     375     537     552     555       1
     360     351     345     363      17     357     351     345     363      17
     354     351     345     363      17     351     345     363     366      17
     351     345     363     369      17     351     345     363     372      17
     348     345     351     354      10     348     345     351     357      10
     348     345     351     360      10     348     345     363     366      10
     348     345     363     369      10     348     345     363     372      10
     342     336     345     348      10     342     336     345     351      17
     342     336     345     363      17     339     336     345     348      10
     339     336     345     351      17     339     336     345     363      17
     336     345     351     354      17     336     345     351     357      17
     336     345     351     360      17     336     345     363     366      17
     336     345     363     369      17     336     345     363     372      17
     333     330     309     381       1     333     330     336     339      16
     333     330     336     342      16     333     330     336     345      16
     330     336     345     348      17     327     318     315     330       1
     324     318     315     330       1     321     318     315     330       1
     318     315     330     333       1     315     330     336     339      16
     315     330     336     342      16     312     309     330     333       3
     312     309    -330     333       1     312     309    -330     333       4
     309     330     336     339      16     309     330     336     342      16
     309     381     384     387       1     309     381     384     390       1
     309     381     384     393       1     309     381     396     399       1
     573     564     558     576      17     570     564     558     576      17
     567     564     558     576      17     564     558     576     579      17
     564     558     576     582      17     564     558     576     585      17
     561     558     564     567      10     561     558     564     570      10
     561     558     564     573      10     561     558     576     579      10
     561     558     576     582      10     561     558     576     585      10
     555     552     558     561      16     555     552     558     564      16
     555     552     558     576      16     552     558     564     567      17
     552     558     564     570      17     552     558     564     573      17
     552     558     576     579      17     552     558     576     582      17
     552     558     576     585      17     549     540     537     552       1
     546     540     537     552       1     543     540     537     552       1
     540     537     552     555       1     537     552     558     561      16
     534     531     552     555       3     534     531    -552     555       1
     534     531    -552     555       4     531     552     558     561      16
     516     513     519     522      10     516     513     519     525      10
     516     513     519     528      10     510     504     513     516      10
     510     504     513     519      17     507     504     513     516      10
     507     504     513     519      17     504     513     519     522      17
     504     513     519     525      17     504     513     519     528      17
     489     486     480     504      25     489     486     492     495      26
     489     486     492     498      26     489     486     492     501      26
     486     480     504     507      27     486     480    -504     507      28
     486     480     504     510      27     486     480    -504     510      28
     483     480     486     489      25     483     480     486     492      25
     483     480     504     507      26     483     480     504     510      26
     483     480     504     513      26     480     486     492     495      27
     480     486    -492     495      28     480     486     492     498      27
     480     486    -492     498      28     480     486     492     501      27
     480     486    -492     501      28     480     504     513     516      16
     477     474     468     513      29     477     474    -468     513      17
     474     468     513     516      29     474     468    -513     516      26
     471     468     474     477      30     471     468     513     504      16
     471     468     513     516      16     471     468     513     519      16
     468     513     504     507      17     468     513     504     510      17
     468     513     519     522      17     468     513     519     525      17
     468     513     519     528      17     465     462     447     531       1
     465     462     468     471      16     465     462     468     474      29
     465     462    -468     474      26     465     462     468     513      16
     462     468     474     477      29     462     468    -474     477      17
     462     468     513     516      17     459     450     447     462       1
     459     450     447     531       1     456     450     447     462       1
     456     450     447     531       1     453     450     447     462       1
     453     450     447     531       1     450     447     462     465       1
     447     462     468     471      16     447     531     552     555       1
     444     441     462     465       3     444     441    -462     465       1
     444     441    -462     465       4     441     462     468     471      16
     603     600     591     588      30     603     600     591     594      30
     603     600     591     597      30     621     618     609     606      30
     621     618     609     612      30     621     618     609     615      30
     639     636     627     624      30     639     636     627     630      30
     639     636     627     633      30     657     654     645     642      30
     657     654     645     648      30     657     654     645     651      30
     675     672     663     660      30     675     672     663     666      30
     675     672     663     669      30     693     690     681     678      30
     693     690     681     684      30     693     690     681     687      30
     711     708     699     696      30     711     708     699     702      30
     711     708     699     705      30     729     726     717     714      30
     729     726     717     720      30     729     726     717     723      30
     747     744     735     732      30     747     744     735     738      30
     747     744     735     741      30     765     762     753     750      30
     765     762     753     756      30     765     762     753     759      30
     783     780     771     768      30     783     780     771     774      30
     783     780     771     777      30     801     798     789     786      30
     801     798     789     792      30     801     798     789     795      30
     819     816     807     804      30     819     816     807     810      30
     819     816     807     813      30     837     834     825     822      30
     837     834     825     828      30     837     834     825     831      30
     855     852     843     840      30     855     852     843     846      30
     855     852     843     849      30     873     870     861     858      30
     873     870     861     864      30     873     870     861     867      30
     891     888     879     876      30     891     888     879     882      30
     891     888     879     885      30     909     906     897     894      30
     909     906     897     900      30     909     906     897     903      30
     927     924     915     912      30     927     924     915     918      30
     927     924     915     921      30     945     942     933     930      30
     945     942     933     936      30     945     942     933     939      30
     963     960     951     948      30     963     960     951     954      30
     963     960     951     957      30     981     978     969     966      30
     981     978     969     972      30     981     978     969     975      30
     999     996     987     984      30     999     996     987     990      30
     999     996     987     993      30    1017    1014    1005    1002      30
    1017    1014    1005    1008      30    1017    1014    1005    1011      30
    1035    1032    1023    1020      30    1035    1032    1023    1026      30
    1035    1032    1023    1029      30    1053    1050    1041    1038      30
    1053    1050    1041    1044      30    1053    1050    1041    1047      30
    1071    1068    1059    1056      30    1071    1068    1059    1062      30
    1071    1068    1059    1065      30    1089    1086    1077    1074      30
    1089    1086    1077    1080      30    1089    1086    1077    1083      30
    1107    1104    1095    1092      30    1107    1104    1095    1098      30
    1107    1104    1095    1101      30    1125    1122    1113    1110      30
    1125    1122    1113    1116      30    1125    1122    1113    1119      30
    1143    1140    1131    1128      30    1143    1140    1131    1134      30
    1143    1140    1131    1137      30    1161    1158    1149    1146      30
    1161    1158    1149    1152      30    1161    1158    1149    1155      30
    1179    1176    1167    1164      30    1179    1176    1167    1170      30
    1179    1176    1167    1173      30    1197    1194    1185    1182      30
    1197    1194    1185    1188      30    1197    1194    1185    1191      30
    1215    1212    1203    1200      30    1215    1212    1203    1206      30
    1215    1212    1203    1209      30    1233    1230    1221    1218      30
    1233    1230    1221    1224      30    1233    1230    1221    1227      30
    1251    1248    1239    1236      30    1251    1248    1239    1242      30
    1251    1248    1239    1245      30    1269    1266    1257    1254      30
    1269    1266    1257    1260      30    1269    1266    1257    1263      30
    1287    1284    1275    1272      30    1287    1284    1275    1278      30
    1287    1284    1275    1281      30    1305    1302    1293    1290      30
    1305    1302    1293    1296      30    1305    1302    1293    1299      30
    1323    1320    1311    1308      30    1323    1320    1311    1314      30
    1323    1320    1311    1317      30    1341    1338    1329    1326      30
    1341    1338    1329    1332      30    1341    1338    1329    1335      30
    1359    1356    1347    1344      30    1359    1356    1347    1350      30
    1359    1356    1347    1353      30    1377    1374    1365    1362      30
    1377    1374    1365    1368      30    1377    1374    1365    1371      30
    1395    1392    1383    1380      30    1395    1392    1383    1386      30
    1395    1392    1383    1389      30    1413    1410    1401    1398      30
    1413    1410    1401    1404      30    1413    1410    1401    1407      30
    1431    1428    1419    1416      30    1431    1428    1419    1422      30
    1431    1428    1419    1425      30    1449    1446    1437    1434      30
    1449    1446    1437    1440      30    1449    1446    1437    1443      30
    1467    1464    1455    1452      30    1467    1464    1455    1458      30
    1467    1464    1455    1461      30    1485    1482    1473    1470      30
    1485    1482    1473    1476      30    1485    1482    1473    1479      30
    1503    1500    1491    1488      30    1503    1500    1491    1494      30
    1503    1500    1491    1497      30    1521    1518    1509    1506      30
    1521    1518    1509    1512      30    1521    1518    1509    1515      30
    1539    1536    1527    1524      30    1539    1536    1527    1530      30
    1539    1536    1527    1533      30    1557    1554    1545    1542      30
    1557    1554    1545    1548      30    1557    1554    1545    1551      30
    1575    1572    1563    1560      30    1575    1572    1563    1566      30
    1575    1572    1563    1569      30    1593    1590    1581    1578      30
    1593    1590    1581    1584      30    1593    1590    1581    1587      30
    1611    1608    1599    1596      30    1611    1608    1599    1602      30
    1611    1608    1599    1605      30    1629    1626    1617    1614      30
    1629    1626    1617    1620      30    1629    1626    1617    1623      30
    1647    1644    1635    1632      30    1647    1644    1635    1638      30
    1647    1644    1635    1641      30    1665    1662    1653    1650      30
    1665    1662    1653    1656      30    1665    1662    1653    1659      30
    1683    1680    1671    1668      30    1683    1680    1671    1674      30
    1683    1680    1671    1677      30    1701    1698    1689    1686      30
    1701    1698    1689    1692      30    1701    1698    1689    1695      30
    1719    1716    1707    1704      30    1719    1716    1707    1710      30
    1719    1716    1707    1713      30    1737    1734    1725    1722      30
    1737    1734    1725    1728      30    1737    1734    1725    1731      30
    1755    1752    1743    1740      30    1755    1752    1743    1746      30
    1755    1752    1743    1749      30    1773    1770    1761    1758      30
    1773    1770    1761    1764      30    1773    1770    1761    1767      30
    1791    1788    1779    1776      30    1791    1788    1779    1782      30
    1791    1788    1779    1785      30    1809    1806    1797    1794      30
    1809    1806    1797    1800      30    1809    1806    1797    1803      30
    1827    1824    1815    1812      30    1827    1824    1815    1818      30
    1827    1824    1815    1821      30    1845    1842    1833    1830      30
    1845    1842    1833    1836      30    1845    1842    1833    1839      30
    1863    1860    1851    1848      30    1863    1860    1851    1854      30
    1863    1860    1851    1857      30    1881    1878    1869    1866      30
    1881    1878    1869    1872      30    1881    1878    1869    1875      30
    1899    1896    1887    1884      30    1899    1896    1887    1890      30
    1899    1896    1887    1893      30    1917    1914    1905    1902      30
    1917    1914    1905    1908      30    1917    1914    1905    1911      30
    1935    1932    1923    1920      30    1935    1932    1923    1926      30
    1935    1932    1923    1929      30    1953    1950    1941    1938      30
    1953    1950    1941    1944      30    1953    1950    1941    1947      30
    1971    1968    1959    1956      30    1971    1968    1959    1962      30
    1971    1968    1959    1965      30    1989    1986    1977    1974      30
    1989    1986    1977    1980      30    1989    1986    1977    1983      30
    2007    2004    1995    1992      30    2007    2004    1995    1998      30
    2007    2004    1995    2001      30    2025    2022    2013    2010      30
    2025    2022    2013    2016      30    2025    2022    2013    2019      30
    2043    2040    2031    2028      30    2043    2040    2031    2034      30
    2043    2040    2031    2037      30    2061    2058    2049    2046      30
    2061    2058    2049    2052      30    2061    2058    2049    2055      30
    2079    2076    2067    2064      30    2079    2076    2067    2070      30
    2079    2076    2067    2073      30    2097    2094    2085    2082      30
    2097    2094    2085    2088      30    2097    2094    2085    2091      30
    2115    2112    2103    2100      30    2115    2112    2103    2106      30
    2115    2112    2103    2109      30    2133    2130    2121    2118      30
    2133    2130    2121    2124      30    2133    2130    2121    2127      30
    2151    2148    2139    2136      30    2151    2148    2139    2142      30
    2151    2148    2139    2145      30    2169    2166    2157    2154      30
    2169    2166    2157    2160      30    2169    2166    2157    2163      30
    2187    2184    2175    2172      30    2187    2184    2175    2178      30
    2187    2184    2175    2181      30    2205    2202    2193    2190      30
    2205    2202    2193    2196      30    2205    2202    2193    2199      30
    2223    2220    2211    2208      30    2223    2220    2211    2214      30
    2223    2220    2211    2217      30    2241    2238    2229    2226      30
    2241    2238    2229    2232      30    2241    2238    2229    2235      30
    2259    2256    2247    2244      30    2259    2256    2247    2250      30
    2259    2256    2247    2253      30    2277    2274    2265    2262      30
    2277    2274    2265    2268      30    2277    2274    2265    2271      30
    2295    2292    2283    2280      30    2295    2292    2283    2286      30
    2295    2292    2283    2289      30    2313    2310    2301    2298      30
    2313    2310    2301    2304      30    2313    2310    2301    2307      30
    2331    2328    2319    2316      30    2331    2328    2319    2322      30
    2331    2328    2319    2325      30    2349    2346    2337    2334      30
    2349    2346    2337    2340      30    2349    2346    2337    2343      30
    2367    2364    2355    2352      30    2367    2364    2355    2358      30
    2367    2364    2355    2361      30    2385    2382    2373    2370      30
    2385    2382    2373    2376      30    2385    2382    2373    2379      30
    2403    2400    2391    2388      30    2403    2400    2391    2394      30
    2403    2400    2391    2397      30    2421    2418    2409    2406      30
    2421    2418    2409    2412      30    2421    2418    2409    2415      30
    2439    2436    2427    2424      30    2439    2436    2427    2430      30
    2439    2436    2427    2433      30    2457    2454    2445    2442      30
    2457    2454    2445    2448      30    2457    2454    2445    2451      30
    2475    2472    2463    2460      30    2475    2472    2463    2466      30
    2475    2472    2463    2469      30    2493    2490    2481    2478      30
    2493    2490    2481    2484      30    2493    2490    2481    2487      30
    2511    2508    2499    2496      30    2511    2508    2499    2502      30
    2511    2508    2499    2505      30    2529    2526    2517    2514      30
    2529    2526    2517    2520      30    2529    2526    2517    2523      30
    2547    2544    2535    2532      30    2547    2544    2535    2538      30
    2547    2544    2535    2541      30    2565    2562    2553    2550      30
    2565    2562    2553    2556      30    2565    2562    2553    2559      30
    2583    2580    2571    2568      30    2583    2580    2571    2574      30
    2583    2580    2571    2577      30    2601    2598    2589    2586      30
    2601    2598    2589    2592      30    2601    2598    2589    2595      30
    2619    2616    2607    2604      30    2619    2616    2607    2610      30
    2619    2616    2607    2613      30    2637    2634    2625    2622      30
    2637    2634    2625    2628      30    2637    2634    2625    2631      30
    2655    2652    2643    2640      30    2655    2652    2643    2646      30
    2655    2652    2643    2649      30    2673    2670    2661    2658      30
    2673    2670    2661    2664      30    2673    2670    2661    2667      30
    2691    2688    2679    2676      30    2691    2688    2679    2682      30
    2691    2688    2679    2685      30    2709    2706    2697    2694      30
    2709    2706    2697    2700      30    2709    2706    2697    2703      30
    2727    2724    2715    2712      30    2727    2724    2715    2718      30
    2727    2724    2715    2721      30    2745    2742    2733    2730      30
    2745    2742    2733    2736      30    2745    2742    2733    2739      30
    2763    2760    2751    2748      30    2763    2760    2751    2754      30
    2763    2760    2751    2757      30    2781    2778    2769    2766      30
    2781    2778    2769    2772      30    2781    2778    2769    2775      30
    2799    2796    2787    2784      30    2799    2796    2787    2790      30
    2799    2796    2787    2793      30    2817    2814    2805    2802      30
    2817    2814    2805    2808      30    2817    2814    2805    2811      30
    2835    2832    2823    2820      30    2835    2832    2823    2826      30
    2835    2832    2823    2829      30    2853    2850    2841    2838      30
    2853    2850    2841    2844      30    2853    2850    2841    2847      30
    2871    2868    2859    2856      30    2871    2868    2859    2862      30
    2871    2868    2859    2865      30    2889    2886    2877    2874      30
    2889    2886    2877    2880      30    2889    2886    2877    2883      30
    2907    2904    2895    2892      30    2907    2904    2895    2898      30
    2907    2904    2895    2901      30    2925    2922    2913    2910      30
    2925    2922    2913    2916      30    2925    2922    2913    2919      30
    2943    2940    2931    2928      30    2943    2940    2931    2934      30
    2943    2940    2931    2937      30    2961    2958    2949    2946      30
    2961    2958    2949    2952      30    2961    2958    2949    2955      30
    2979    2976    2967    2964      30    2979    2976    2967    2970      30
    2979    2976    2967    2973      30    2997    2994    2985    2982      30
    2997    2994    2985    2988      30    2997    2994    2985    2991      30
    3015    3012    3003    3000      30    3015    3012    3003    3006      30
    3015    3012    3003    3009      30    3033    3030    3021    3018      30
    3033    3030    3021    3024      30    3033    3030    3021    3027      30
    3051    3048    3039    3036      30    3051    3048    3039    3042      30
    3051    3048    3039    3045      30    3069    3066    3057    3054      30
    3069    3066    3057    3060      30    3069    3066    3057    3063      30
    3087    3084    3075    3072      30    3087    3084    3075    3078      30
    3087    3084    3075    3081      30    3105    3102    3093    3090      30
    3105    3102    3093    3096      30    3105    3102    3093    3099      30
    3123    3120    3111    3108      30    3123    3120    3111    3114      30
    3123    3120    3111    3117      30    3141    3138    3129    3126      30
    3141    3138    3129    3132      30    3141    3138    3129    3135      30
    3159    3156    3147    3144      30    3159    3156    3147    3150      30
    3159    3156    3147    3153      30    3177    3174    3165    3162      30
    3177    3174    3165    3168      30    3177    3174    3165    3171      30
    3195    3192    3183    3180      30    3195    3192    3183    3186      30
    3195    3192    3183    3189      30    3213    3210    3201    3198      30
    3213    3210    3201    3204      30    3213    3210    3201    3207      30
    3231    3228    3219    3216      30    3231    3228    3219    3222      30
    3231    3228    3219    3225      30    3249    3246    3237    3234      30
    3249    3246    3237    3240      30    3249    3246    3237    3243      30
    3267    3264    3255    3252      30    3267    3264    3255    3258      30
    3267    3264    3255    3261      30    3285    3282    3273    3270      30
    3285    3282    3273    3276      30    3285    3282    3273    3279      30
    3303    3300    3291    3288      30    3303    3300    3291    3294      30
    3303    3300    3291    3297      30    3321    3318    3309    3306      30
    3321    3318    3309    3312      30    3321    3318    3309    3315      30
    3339    3336    3327    3324      30    3339    3336    3327    3330      30
    3339    3336    3327    3333      30    3357    3354    3345    3342      30
    3357    3354    3345    3348      30    3357    3354    3345    3351      30
    3375    3372    3363    3360      30    3375    3372    3363    3366      30
    3375    3372    3363    3369      30    3393    3390    3381    3378      30
    3393    3390    3381    3384      30    3393    3390    3381    3387      30
    3411    3408    3399    3396      30    3411    3408    3399    3402      30
    3411    3408    3399    3405      30    3429    3426    3417    3414      30
    3429    3426    3417    3420      30    3429    3426    3417    3423      30
    3447    3444    3435    3432      30    3447    3444    3435    3438      30
    3447    3444    3435    3441      30    3465    3462    3453    3450      30
    3465    3462    3453    3456      30    3465    3462    3453    3459      30
    3483    3480    3471    3468      30    3483    3480    3471    3474      30
    3483    3480    3471    3477      30    3501    3498    3489    3486      30
    3501    3498    3489    3492      30    3501    3498    3489    3495      30
    3519    3516    3507    3504      30    3519    3516    3507    3510      30
    3519    3516    3507    3513      30    3537    3534    3525    3522      30
    3537    3534    3525    3528      30    3537    3534    3525    3531      30
    3555    3552    3543    3540      30    3555    3552    3543    3546      30
    3555    3552    3543    3549      30    3573    3570    3561    3558      30
    3573    3570    3561    3564      30    3573    3570    3561    3567      30
    3591    3588    3579    3576      30    3591    3588    3579    3582      30
    3591    3588    3579    3585      30    3609    3606    3597    3594      30
    3609    3606    3597    3600      30    3609    3606    3597    3603      30
    3627    3624    3615    3612      30    3627    3624    3615    3618      30
    3627    3624    3615    3621      30    3645    3642    3633    3630      30
    3645    3642    3633    3636      30    3645    3642    3633    3639      30
    3663    3660    3651    3648      30    3663    3660    3651    3654      30
    3663    3660    3651    3657      30    3681    3678    3669    3666      30
    3681    3678    3669    3672      30    3681    3678    3669    3675      30
    3699    3696    3687    3684      30    3699    3696    3687    3690      30
    3699    3696    3687    3693      30    3717    3714    3705    3702      30
    3717    3714    3705    3708      30    3717    3714    3705    3711      30
    3735    3732    3723    3720      30    3735    3732    3723    3726      30
    3735    3732    3723    3729      30    3753    3750    3741    3738      30
    3753    3750    3741    3744      30    3753    3750    3741    3747      30
    3771    3768    3759    3756      30    3771    3768    3759    3762      30
    3771    3768    3759    3765      30    3789    3786    3777    3774      30
    3789    3786    3777    3780      30    3789    3786    3777    3783      30
    3807    3804    3795    3792      30    3807    3804    3795    3798      30
    3807    3804    3795    3801      30    3825    3822    3813    3810      30
    3825    3822    3813    3816      30    3825    3822    3813    3819      30
    3843    3840    3831    3828      30    3843    3840    3831    3834      30
    3843    3840    3831    3837      30    3861    3858    3849    3846      30
    3861    3858    3849    3852      30    3861    3858    3849    3855      30
    3879    3876    3867    3864      30    3879    3876    3867    3870      30
    3879    3876    3867    3873      30    3897    3894    3885    3882      30
    3897    3894    3885    3888      30    3897    3894    3885    3891      30
    3915    3912    3903    3900      30    3915    3912    3903    3906      30
    3915    3912    3903    3909      30    3933    3930    3921    3918      30
    3933    3930    3921    3924      30    3933    3930    3921    3927      30
    3951    3948    3939    3936      30    3951    3948    3939    3942      30
    3951    3948    3939    3945      30    3969    3966    3957    3954      30
    3969    3966    3957    3960      30    3969    3966    3957    3963      30
    3987    3984    3975    3972      30    3987    3984    3975    3978      30
    3987    3984    3975    3981      30    4005    4002    3993    3990      30
    4005    4002    3993    3996      30    4005    4002    3993    3999      30
    4023    4020    4011    4008      30    4023    4020    4011    4014      30
    4023    4020    4011    4017      30    4041    4038    4029    4026      30
    4041    4038    4029    4032      30    4041    4038    4029    4035      30
    4059    4056    4047    4044      30    4059    4056    4047    4050      30
    4059    4056    4047    4053      30    4077    4074    4065    4062      30
    4077    4074    4065    4068      30    4077    4074    4065    4071      30
    4095    4092    4083    4080      30    4095    4092    4083    4086      30
    4095    4092    4083    4089      30    4113    4110    4101    4098      30
    4113    4110    4101    4104      30    4113    4110    4101    4107      30
    4131    4128    4119    4116      30    4131    4128    4119    4122      30
    4131    4128    4119    4125      30    4149    4146    4137    4134      30
    4149    4146    4137    4140      30    4149    4146    4137    4143      30
    4167    4164    4155    4152      30    4167    4164    4155    4158      30
    4167    4164    4155    4161      30    4185    4182    4173    4170      30
    4185    4182    4173    4176      30    4185    4182    4173    4179      30
    4203    4200    4191    4188      30    4203    4200    4191    4194      30
    4203    4200    4191    4197      30    4221    4218    4209    4206      30
    4221    4218    4209    4212      30    4221    4218    4209    4215      30
    4239    4236    4227    4224      30    4239    4236    4227    4230      30
    4239    4236    4227    4233      30    4257    4254    4245    4242      30
    4257    4254    4245    4248      30    4257    4254    4245    4251      30
    4275    4272    4263    4260      30    4275    4272    4263    4266      30
    4275    4272    4263    4269      30    4293    4290    4281    4278      30
    4293    4290    4281    4284      30    4293    4290    4281    4287      30
    4311    4308    4299    4296      30    4311    4308    4299    4302      30
    4311    4308    4299    4305      30    4329    4326    4317    4314      30
    4329    4326    4317    4320      30    4329    4326    4317    4323      30
    4347    4344    4335    4332      30    4347    4344    4335    4338      30
    4347    4344    4335    4341      30    4365    4362    4353    4350      30
    4365    4362    4353    4356      30    4365    4362    4353    4359      30
    4383    4380    4371    4368      30    4383    4380    4371    4374      30
    4383    4380    4371    4377      30    4401    4398    4389    4386      30
    4401    4398    4389    4392      30    4401    4398    4389    4395      30
    4419    4416    4407    4404      30    4419    4416    4407    4410      30
    4419    4416    4407    4413      30    4437    4434    4425    4422      30
    4437    4434    4425    4428      30    4437    4434    4425    4431      30
    4455    4452    4443    4440      30    4455    4452    4443    4446      30
    4455    4452    4443    4449      30    4473    4470    4461    4458      30
    4473    4470    4461    4464      30    4473    4470    4461    4467      30
    4491    4488    4479    4476      30    4491    4488    4479    4482      30
    4491    4488    4479    4485      30    4509    4506    4497    4494      30
    4509    4506    4497    4500      30    4509    4506    4497    4503      30
    4527    4524    4515    4512      30    4527    4524    4515    4518      30
    4527    4524    4515    4521      30    4545    4542    4533    4530      30
    4545    4542    4533    4536      30    4545    4542    4533    4539      30
    4563    4560    4551    4548      30    4563    4560    4551    4554      30
    4563    4560    4551    4557      30    4581    4578    4569    4566      30
    4581    4578    4569    4572      30    4581    4578    4569    4575      30
    4599    4596    4587    4584      30    4599    4596    4587    4590      30
    4599    4596    4587    4593      30    4617    4614    4605    4602      30
    4617    4614    4605    4608      30    4617    4614    4605    4611      30
    4635    4632    4623    4620      30    4635    4632    4623    4626      30
    4635    4632    4623    4629      30    4653    4650    4641    4638      30
    4653    4650    4641    4644      30    4653    4650    4641    4647      30
    4671    4668    4659    4656      30    4671    4668    4659    4662      30
    4671    4668    4659    4665      30    4689    4686    4677    4674      30
    4689    4686    4677    4680      30    4689    4686    4677    4683      30
    4707    4704    4695    4692      30    4707    4704    4695    4698      30
    4707    4704    4695    4701      30    4725    4722    4713    4710      30
    4725    4722    4713    4716      30    4725    4722    4713    4719      30
    4743    4740    4731    4728      30    4743    4740    4731    4734      30
    4743    4740    4731    4737      30    4761    4758    4749    4746      30
    4761    4758    4749    4752      30    4761    4758    4749    4755      30
    4779    4776    4767    4764      30    4779    4776    4767    4770      30
    4779    4776    4767    4773      30    4797    4794    4785    4782      30
    4797    4794    4785    4788      30    4797    4794    4785    4791      30
    4815    4812    4803    4800      30    4815    4812    4803    4806      30
    4815    4812    4803    4809      30    4833    4830    4821    4818      30
    4833    4830    4821    4824      30    4833    4830    4821    4827      30
    4851    4848    4839    4836      30    4851    4848    4839    4842      30
    4851    4848    4839    4845      30    4869    4866    4857    4854      30
    4869    4866    4857    4860      30    4869    4866    4857    4863      30
    4887    4884    4875    4872      30    4887    4884    4875    4878      30
    4887    4884    4875    4881      30    4905    4902    4893    4890      30
    4905    4902    4893    4896      30    4905    4902    4893    4899      30
    4923    4920    4911    4908      30    4923    4920    4911    4914      30
    4923    4920    4911    4917      30    4941    4938    4929    4926      30
    4941    4938    4929    4932      30    4941    4938    4929    4935      30
    4959    4956    4947    4944      30    4959    4956    4947    4950      30
    4959    4956    4947    4953      30    4977    4974    4965    4962      30
    4977    4974    4965    4968      30    4977    4974    4965    4971      30
    4995    4992    4983    4980      30    4995    4992    4983    4986      30
    4995    4992    4983    4989      30    5013    5010    5001    4998      30
    5013    5010    5001    5004      30    5013    5010    5001    5007      30
    5031    5028    5019    5016      30    5031    5028    5019    5022      30
    5031    5028    5019    5025      30    5049    5046    5037    5034      30
    5049    5046    5037    5040      30    5049    5046    5037    5043      30
    5067    5064    5055    5052      30    5067    5064    5055    5058      30
    5067    5064    5055    5061      30    5085    5082    5073    5070      30
    5085    5082    5073    5076      30    5085    5082    5073    5079      30
    5103    5100    5091    5088      30    5103    5100    5091    5094      30
    5103    5100    5091    5097      30    5121    5118    5109    5106      30
    5121    5118    5109    5112      30    5121    5118    5109    5115      30
    5139    5136    5127    5124      30    5139    5136    5127    5130      30
    5139    5136    5127    5133      30    5157    5154    5145    5142      30
    5157    5154    5145    5148      30    5157    5154    5145    5151      30
    5175    5172    5163    5160      30    5175    5172    5163    5166      30
    5175    5172    5163    5169      30    5193    5190    5181    5178      30
    5193    5190    5181    5184      30    5193    5190    5181    5187      30
    5211    5208    5199    5196      30    5211    5208    5199    5202      30
    5211    5208    5199    5205      30    5229    5226    5217    5214      30
    5229    5226    5217    5220      30    5229    5226    5217    5223      30
    5247    5244    5235    5232      30    5247    5244    5235    5238      30
    5247    5244    5235    5241      30    5265    5262    5253    5250      30
    5265    5262    5253    5256      30    5265    5262    5253    5259      30
    5283    5280    5271    5268      30    5283    5280    5271    5274      30
    5283    5280    5271    5277      30    5301    5298    5289    5286      30
    5301    5298    5289    5292      30    5301    5298    5289    5295      30
    5319    5316    5307    5304      30    5319    5316    5307    5310      30
    5319    5316    5307    5313      30    5337    5334    5325    5322      30
    5337    5334    5325    5328      30    5337    5334    5325    5331      30
    5355    5352    5343    5340      30    5355    5352    5343    5346      30
    5355    5352    5343    5349      30    5373    5370    5361    5358      30
    5373    5370    5361    5364      30    5373    5370    5361    5367      30
    5391    5388    5379    5376      30    5391    5388    5379    5382      30
    5391    5388    5379    5385      30    5409    5406    5397    5394      30
    5409    5406    5397    5400      30    5409    5406    5397    5403      30
    5427    5424    5415    5412      30    5427    5424    5415    5418      30
    5427    5424    5415    5421      30    5445    5442    5433    5430      30
    5445    5442    5433    5436      30    5445    5442    5433    5439      30
    5463    5460    5451    5448      30    5463    5460    5451    5454      30
    5463    5460    5451    5457      30    5481    5478    5469    5466      30
    5481    5478    5469    5472      30    5481    5478    5469    5475      30
    5499    5496    5487    5484      30    5499    5496    5487    5490      30
    5499    5496    5487    5493      30    5517    5514    5505    5502      30
    5517    5514    5505    5508      30    5517    5514    5505    5511      30
    5535    5532    5523    5520      30    5535    5532    5523    5526      30
    5535    5532    5523    5529      30    5553    5550    5541    5538      30
    5553    5550    5541    5544      30    5553    5550    5541    5547      30
    5571    5568    5559    5556      30    5571    5568    5559    5562      30
    5571    5568    5559    5565      30    5589    5586    5577    5574      30
    5589    5586    5577    5580      30    5589    5586    5577    5583      30
    5607    5604    5595    5592      30    5607    5604    5595    5598      30
    5607    5604    5595    5601      30    5625    5622    5613    5610      30
    5625    5622    5613    5616      30    5625    5622    5613    5619      30
    5643    5640    5631    5628      30    5643    5640    5631    5634      30
    5643    5640    5631    5637      30    5661    5658    5649    5646      30
    5661    5658    5649    5652      30    5661    5658    5649    5655      30
    5679    5676    5667    5664      30    5679    5676    5667    5670      30
    5679    5676    5667    5673      30    5697    5694    5685    5682      30
    5697    5694    5685    5688      30    5697    5694    5685    5691      30
    5715    5712    5703    5700      30    5715    5712    5703    5706      30
    5715    5712    5703    5709      30    5733    5730    5721    5718      30
    5733    5730    5721    5724      30    5733    5730    5721    5727      30
    5751    5748    5739    5736      30    5751    5748    5739    5742      30
    5751    5748    5739    5745      30    5769    5766    5757    5754      30
    5769    5766    5757    5760      30    5769    5766    5757    5763      30
    5787    5784    5775    5772      30    5787    5784    5775    5778      30
    5787    5784    5775    5781      30    5805    5802    5793    5790      30
    5805    5802    5793    5796      30    5805    5802    5793    5799      30
    5823    5820    5811    5808      30    5823    5820    5811    5814      30
    5823    5820    5811    5817      30    5841    5838    5829    5826      30
    5841    5838    5829    5832      30    5841    5838    5829    5835      30
    5859    5856    5847    5844      30    5859    5856    5847    5850      30
    5859    5856    5847    5853      30    5877    5874    5865    5862      30
    5877    5874    5865    5868      30    5877    5874    5865    5871      30
    5895    5892    5883    5880      30    5895    5892    5883    5886      30
    5895    5892    5883    5889      30    5913    5910    5901    5898      30
    5913    5910    5901    5904      30    5913    5910    5901    5907      30
    5931    5928    5919    5916      30    5931    5928    5919    5922      30
    5931    5928    5919    5925      30    5949    5946    5937    5934      30
    5949    5946    5937    5940      30    5949    5946    5937    5943      30
    5967    5964    5955    5952      30    5967    5964    5955    5958      30
    5967    5964    5955    5961      30    5985    5982    5973    5970      30
    5985    5982    5973    5976      30    5985    5982    5973    5979      30
    6003    6000    5991    5988      30    6003    6000    5991    5994      30
    6003    6000    5991    5997      30    6021    6018    6009    6006      30
    6021    6018    6009    6012      30    6021    6018    6009    6015      30
    6039    6036    6027    6024      30    6039    6036    6027    6030      30
    6039    6036    6027    6033      30    6057    6054    6045    6042      30
    6057    6054    6045    6048      30    6057    6054    6045    6051      30
    6075    6072    6063    6060      30    6075    6072    6063    6066      30
    6075    6072    6063    6069      30    6093    6090    6081    6078      30
    6093    6090    6081    6084      30    6093    6090    6081    6087      30
    6111    6108    6099    6096      30    6111    6108    6099    6102      30
    6111    6108    6099    6105      30    6129    6126    6117    6114      30
    6129    6126    6117    6120      30    6129    6126    6117    6123      30
    6147    6144    6135    6132      30    6147    6144    6135    6138      30
    6147    6144    6135    6141      30    6165    6162    6153    6150      30
    6165    6162    6153    6156      30    6165    6162    6153    6159      30
    6183    6180    6171    6168      30    6183    6180    6171    6174      30
    6183    6180    6171    6177      30    6201    6198    6189    6186      30
    6201    6198    6189    6192      30    6201    6198    6189    6195      30
    6219    6216    6207    6204      30    6219    6216    6207    6210      30
    6219    6216    6207    6213      30    6237    6234    6225    6222      30
    6237    6234    6225    6228      30    6237    6234    6225    6231      30
    6255    6252    6243    6240      30    6255    6252    6243    6246      30
    6255    6252    6243    6249      30    6273    6270    6261    6258      30
    6273    6270    6261    6264      30    6273    6270    6261    6267      30
    6291    6288    6279    6276      30    6291    6288    6279    6282      30
    6291    6288    6279    6285      30    6309    6306    6297    6294      30
    6309    6306    6297    6300      30    6309    6306    6297    6303      30
    6327    6324    6315    6312      30    6327    6324    6315    6318      30
    6327    6324    6315    6321      30    6345    6342    6333    6330      30
    6345    6342    6333    6336      30    6345    6342    6333    6339      30
    6363    6360    6351    6348      30    6363    6360    6351    6354      30
    6363    6360    6351    6357      30    6381    6378    6369    6366      30
    6381    6378    6369    6372      30    6381    6378    6369    6375      30
    6399    6396    6387    6384      30    6399    6396    6387    6390      30
    6399    6396    6387    6393      30    6417    6414    6405    6402      30
    6417    6414    6405    6408      30    6417    6414    6405    6411      30
    6435    6432    6423    6420      30    6435    6432    6423    6426      30
    6435    6432    6423    6429      30    6453    6450    6441    6438      30
    6453    6450    6441    6444      30    6453    6450    6441    6447      30
    6471    6468    6459    6456      30    6471    6468    6459    6462      30
    6471    6468    6459    6465      30    6489    6486    6477    6474      30
    6489    6486    6477    6480      30    6489    6486    6477    6483      30
    6507    6504    6495    6492      30    6507    6504    6495    6498      30
    6507    6504    6495    6501      30    6525    6522    6513    6510      30
    6525    6522    6513    6516      30    6525    6522    6513    6519      30
    6543    6540    6531    6528      30    6543    6540    6531    6534      30
    6543    6540    6531    6537      30    6561    6558    6549    6546      30
    6561    6558    6549    6552      30    6561    6558    6549    6555      30
    6579    6576    6567    6564      30    6579    6576    6567    6570      30
    6579    6576    6567    6573      30    6597    6594    6585    6582      30
    6597    6594    6585    6588      30    6597    6594    6585    6591      30
    6615    6612    6603    6600      30    6615    6612    6603    6606      30
    6615    6612    6603    6609      30    6633    6630    6621    6618      30
    6633    6630    6621    6624      30    6633    6630    6621    6627      30
    6651    6648    6639    6636      30    6651    6648    6639    6642      30
    6651    6648    6639    6645      30    6669    6666    6657    6654      30
    6669    6666    6657    6660      30    6669    6666    6657    6663      30
    6687    6684    6675    6672      30    6687    6684    6675    6678      30
    6687    6684    6675    6681      30    6705    6702    6693    6690      30
    6705    6702    6693    6696      30    6705    6702    6693    6699      30
    6723    6720    6711    6708      30    6723    6720    6711    6714      30
    6723    6720    6711    6717      30    6741    6738    6729    6726      30
    6741    6738    6729    6732      30    6741    6738    6729    6735      30
    6759    6756    6747    6744      30    6759    6756    6747    6750      30
    6759    6756    6747    6753      30    6777    6774    6765    6762      30
    6777    6774    6765    6768      30    6777    6774    6765    6771      30
    6795    6792    6783    6780      30    6795    6792    6783    6786      30
    6795    6792    6783    6789      30    6813    6810    6801    6798      30
    6813    6810    6801    6804      30    6813    6810    6801    6807      30
    6831    6828    6819    6816      30    6831    6828    6819    6822      30
    6831    6828    6819    6825      30    6849    6846    6837    6834      30
    6849    6846    6837    6840      30    6849    6846    6837    6843      30
    6867    6864    6855    6852      30    6867    6864    6855    6858      30
    6867    6864    6855    6861      30    6885    6882    6873    6870      30
    6885    6882    6873    6876      30    6885    6882    6873    6879      30
    6903    6900    6891    6888      30    6903    6900    6891    6894      30
    6903    6900    6891    6897      30    6921    6918    6909    6906      30
    6921    6918    6909    6912      30    6921    6918    6909    6915      30
    6939    6936    6927    6924      30    6939    6936    6927    6930      30
    6939    6936    6927    6933      30    6957    6954    6945    6942      30
    6957    6954    6945    6948      30    6957    6954    6945    6951      30
    6975    6972    6963    6960      30    6975    6972    6963    6966      30
    6975    6972    6963    6969      30    6993    6990    6981    6978      30
    6993    6990    6981    6984      30    6993    6990    6981    6987      30
    7011    7008    6999    6996      30    7011    7008    6999    7002      30
    7011    7008    6999    7005      30    7029    7026    7017    7014      30
    7029    7026    7017    7020      30    7029    7026    7017    7023      30
    7047    7044    7035    7032      30    7047    7044    7035    7038      30
    7047    7044    7035    7041      30    7065    7062    7053    7050      30
    7065    7062    7053    7056      30    7065    7062    7053    7059      30
    7083    7080    7071    7068      30    7083    7080    7071    7074      30
    7083    7080    7071    7077      30    7101    7098    7089    7086      30
    7101    7098    7089    7092      30    7101    7098    7089    7095      30
    7119    7116    7107    7104      30    7119    7116    7107    7110      30
    7119    7116    7107    7113      30    7137    7134    7125    7122      30
    7137    7134    7125    7128      30    7137    7134    7125    7131      30
    7155    7152    7143    7140      30    7155    7152    7143    7146      30
    7155    7152    7143    7149      30    7173    7170    7161    7158      30
    7173    7170    7161    7164      30    7173    7170    7161    7167      30
    7191    7188    7179    7176      30    7191    7188    7179    7182      30
    7191    7188    7179    7185      30    7209    7206    7197    7194      30
    7209    7206    7197    7200      30    7209    7206    7197    7203      30
    7227    7224    7215    7212      30    7227    7224    7215    7218      30
    7227    7224    7215    7221      30    7245    7242    7233    7230      30
    7245    7242    7233    7236      30    7245    7242    7233    7239      30
    7263    7260    7251    7248      30    7263    7260    7251    7254      30
    7263    7260    7251    7257      30    7281    7278    7269    7266      30
    7281    7278    7269    7272      30    7281    7278    7269    7275      30
    7299    7296    7287    7284      30    7299    7296    7287    7290      30
    7299    7296    7287    7293      30    7317    7314    7305    7302      30
    7317    7314    7305    7308      30    7317    7314    7305    7311      30
    7335    7332    7323    7320      30    7335    7332    7323    7326      30
    7335    7332    7323    7329      30    7353    7350    7341    7338      30
    7353    7350    7341    7344      30    7353    7350    7341    7347      30
    7371    7368    7359    7356      30    7371    7368    7359    7362      30
    7371    7368    7359    7365      30    7389    7386    7377    7374      30
    7389    7386    7377    7380      30    7389    7386    7377    7383      30
    7407    7404    7395    7392      30    7407    7404    7395    7398      30
    7407    7404    7395    7401      30    7425    7422    7413    7410      30
    7425    7422    7413    7416      30    7425    7422    7413    7419      30
    7443    7440    7431    7428      30    7443    7440    7431    7434      30
    7443    7440    7431    7437      30    7461    7458    7449    7446      30
    7461    7458    7449    7452      30    7461    7458    7449    7455      30
    7479    7476    7467    7464      30    7479    7476    7467    7470      30
    7479    7476    7467    7473      30    7497    7494    7485    7482      30
    7497    7494    7485    7488      30    7497    7494    7485    7491      30
    7515    7512    7503    7500      30    7515    7512    7503    7506      30
    7515    7512    7503    7509      30    7533    7530    7521    7518      30
    7533    7530    7521    7524      30    7533    7530    7521    7527      30
    7551    7548    7539    7536      30    7551    7548    7539    7542      30
    7551    7548    7539    7545      30    7569    7566    7557    7554      30
    7569    7566    7557    7560      30    7569    7566    7557    7563      30
    7587    7584    7575    7572      30    7587    7584    7575    7578      30
    7587    7584    7575    7581      30    7605    7602    7593    7590      30
    7605    7602    7593    7596      30    7605    7602    7593    7599      30
    7623    7620    7611    7608      30    7623    7620    7611    7614      30
    7623    7620    7611    7617      30    7641    7638    7629    7626      30
    7641    7638    7629    7632      30    7641    7638    7629    7635      30
    7659    7656    7647    7644      30    7659    7656    7647    7650      30
    7659    7656    7647    7653      30    7677    7674    7665    7662      30
    7677    7674    7665    7668      30    7677    7674    7665    7671      30
    7695    7692    7683    7680      30    7695    7692    7683    7686      30
    7695    7692    7683    7689      30    7713    7710    7701    7698      30
    7713    7710    7701    7704      30    7713    7710    7701    7707      30
    7731    7728    7719    7716      30    7731    7728    7719    7722      30
    7731    7728    7719    7725      30    7749    7746    7737    7734      30
    7749    7746    7737    7740      30    7749    7746    7737    7743      30
    7767    7764    7755    7752      30    7767    7764    7755    7758      30
    7767    7764    7755    7761      30    7785    7782    7773    7770      30
    7785    7782    7773    7776      30    7785    7782    7773    7779      30
    7803    7800    7791    7788      30    7803    7800    7791    7794      30
    7803    7800    7791    7797      30    7821    7818    7809    7806      30
    7821    7818    7809    7812      30    7821    7818    7809    7815      30
    7839    7836    7827    7824      30    7839    7836    7827    7830      30
    7839    7836    7827    7833      30    7857    7854    7845    7842      30
    7857    7854    7845    7848      30    7857    7854    7845    7851      30
    7875    7872    7863    7860      30    7875    7872    7863    7866      30
    7875    7872    7863    7869      30    7893    7890    7881    7878      30
    7893    7890    7881    7884      30    7893    7890    7881    7887      30
    7911    7908    7899    7896      30    7911    7908    7899    7902      30
    7911    7908    7899    7905      30    7929    7926    7917    7914      30
    7929    7926    7917    7920      30    7929    7926    7917    7923      30
    7947    7944    7935    7932      30    7947    7944    7935    7938      30
    7947    7944    7935    7941      30    7965    7962    7953    7950      30
    7965    7962    7953    7956      30    7965    7962    7953    7959      30
    7983    7980    7971    7968      30    7983    7980    7971    7974      30
    7983    7980    7971    7977      30    8001    7998    7989    7986      30
    8001    7998    7989    7992      30    8001    7998    7989    7995      30
    8019    8016    8007    8004      30    8019    8016    8007    8010      30
    8019    8016    8007    8013      30    8037    8034    8025    8022      30
    8037    8034    8025    8028      30    8037    8034    8025    8031      30
    8055    8052    8043    8040      30    8055    8052    8043    8046      30
    8055    8052    8043    8049      30    8073    8070    8061    8058      30
    8073    8070    8061    8064      30    8073    8070    8061    8067      30
    8091    8088    8079    8076      30    8091    8088    8079    8082      30
    8091    8088    8079    8085      30    8109    8106    8097    8094      30
    8109    8106    8097    8100      30    8109    8106    8097    8103      30
    8127    8124    8115    8112      30    8127    8124    8115    8118      30
    8127    8124    8115    8121      30    8145    8142    8133    8130      30
    8145    8142    8133    8136      30    8145    8142    8133    8139      30
    8163    8160    8151    8148      30    8163    8160    8151    8154      30
    8163    8160    8151    8157      30    8181    8178    8169    8166      30
    8181    8178    8169    8172      30    8181    8178    8169    8175      30
    8199    8196    8187    8184      30    8199    8196    8187    8190      30
    8199    8196    8187    8193      30    8217    8214    8205    8202      30
    8217    8214    8205    8208      30    8217    8214    8205    8211      30
    8235    8232    8223    8220      30    8235    8232    8223    8226      30
    8235    8232    8223    8229      30    8253    8250    8241    8238      30
    8253    8250    8241    8244      30    8253    8250    8241    8247      30
    8271    8268    8259    8256      30    8271    8268    8259    8262      30
    8271    8268    8259    8265      30    8289    8286    8277    8274      30
    8289    8286    8277    8280      30    8289    8286    8277    8283      30
    8307    8304    8295    8292      30    8307    8304    8295    8298      30
    8307    8304    8295    8301      30    8325    8322    8313    8310      30
    8325    8322    8313    8316      30    8325    8322    8313    8319      30
    8343    8340    8331    8328      30    8343    8340    8331    8334      30
    8343    8340    8331    8337      30    8361    8358    8349    8346      30
    8361    8358    8349    8352      30    8361    8358    8349    8355      30
    8379    8376    8367    8364      30    8379    8376    8367    8370      30
    8379    8376    8367    8373      30    8397    8394    8385    8382      30
    8397    8394    8385    8388      30    8397    8394    8385    8391      30
    8415    8412    8403    8400      30    8415    8412    8403    8406      30
    8415    8412    8403    8409      30    8433    8430    8421    8418      30
    8433    8430    8421    8424      30    8433    8430    8421    8427      30
    8451    8448    8439    8436      30    8451    8448    8439    8442      30
    8451    8448    8439    8445      30    8469    8466    8457    8454      30
    8469    8466    8457    8460      30    8469    8466    8457    8463      30
    8487    8484    8475    8472      30    8487    8484    8475    8478      30
    8487    8484    8475    8481      30    8505    8502    8493    8490      30
    8505    8502    8493    8496      30    8505    8502    8493    8499      30
    8523    8520    8511    8508      30    8523    8520    8511    8514      30
    8523    8520    8511    8517      30    8541    8538    8529    8526      30
    8541    8538    8529    8532      30    8541    8538    8529    8535      30
    8559    8556    8547    8544      30    8559    8556    8547    8550      30
    8559    8556    8547    8553      30    8577    8574    8565    8562      30
    8577    8574    8565    8568      30    8577    8574    8565    8571      30
    8595    8592    8583    8580      30    8595    8592    8583    8586      30
    8595    8592    8583    8589      30    8613    8610    8601    8598      30
    8613    8610    8601    8604      30    8613    8610    8601    8607      30
    8631    8628    8619    8616      30    8631    8628    8619    8622      30
    8631    8628    8619    8625      30    8649    8646    8637    8634      30
    8649    8646    8637    8640      30    8649    8646    8637    8643      30
    8667    8664    8655    8652      30    8667    8664    8655    8658      30
    8667    8664    8655    8661      30    8685    8682    8673    8670      30
    8685    8682    8673    8676      30    8685    8682    8673    8679      30
    8703    8700    8691    8688      30    8703    8700    8691    8694      30
    8703    8700    8691    8697      30    8721    8718    8709    8706      30
    8721    8718    8709    8712      30    8721    8718    8709    8715      30
    8739    8736    8727    8724      30    8739    8736    8727    8730      30
    8739    8736    8727    8733      30    8757    8754    8745    8742      30
    8757    8754    8745    8748      30    8757    8754    8745    8751      30
    8775    8772    8763    8760      30    8775    8772    8763    8766      30
    8775    8772    8763    8769      30    8793    8790    8781    8778      30
    8793    8790    8781    8784      30    8793    8790    8781    8787      30
    8811    8808    8799    8796      30    8811    8808    8799    8802      30
    8811    8808    8799    8805      30    8829    8826    8817    8814      30
    8829    8826    8817    8820      30    8829    8826    8817    8823      30
    8847    8844    8835    8832      30    8847    8844    8835    8838      30
    8847    8844    8835    8841      30    8865    8862    8853    8850      30
    8865    8862    8853    8856      30    8865    8862    8853    8859      30
    8883    8880    8871    8868      30    8883    8880    8871    8874      30
    8883    8880    8871    8877      30    8901    8898    8889    8886      30
    8901    8898    8889    8892      30    8901    8898    8889    8895      30
    8919    8916    8907    8904      30    8919    8916    8907    8910      30
    8919    8916    8907    8913      30    8937    8934    8925    8922      30
    8937    8934    8925    8928      30    8937    8934    8925    8931      30
    8955    8952    8943    8940      30    8955    8952    8943    8946      30
    8955    8952    8943    8949      30    8973    8970    8961    8958      30
    8973    8970    8961    8964      30    8973    8970    8961    8967      30
    8991    8988    8979    8976      30    8991    8988    8979    8982      30
    8991    8988    8979    8985      30    9009    9006    8997    8994      30
    9009    9006    8997    9000      30    9009    9006    8997    9003      30
    9027    9024    9015    9012      30    9027    9024    9015    9018      30
    9027    9024    9015    9021      30    9045    9042    9033    9030      30
    9045    9042    9033    9036      30    9045    9042    9033    9039      30
    9063    9060    9051    9048      30    9063    9060    9051    9054      30
    9063    9060    9051    9057      30    9081    9078    9069    9066      30
    9081    9078    9069    9072      30    9081    9078    9069    9075      30
    9099    9096    9087    9084      30    9099    9096    9087    9090      30
    9099    9096    9087    9093      30    9117    9114    9105    9102      30
    9117    9114    9105    9108      30    9117    9114    9105    9111      30
    9135    9132    9123    9120      30    9135    9132    9123    9126      30
    9135    9132    9123    9129      30    9153    9150    9141    9138      30
    9153    9150    9141    9144      30    9153    9150    9141    9147      30
    9171    9168    9159    9156      30    9171    9168    9159    9162      30
    9171    9168    9159    9165      30    9189    9186    9177    9174      30
    9189    9186    9177    9180      30    9189    9186    9177    9183      30
    9207    9204    9195    9192      30    9207    9204    9195    9198      30
    9207    9204    9195    9201      30    9225    9222    9213    9210      30
    9225    9222    9213    9216      30    9225    9222    9213    9219      30
    9243    9240    9231    9228      30    9243    9240    9231    9234      30
    9243    9240    9231    9237      30    9261    9258    9249    9246      30
    9261    9258    9249    9252      30    9261    9258    9249    9255      30
    9279    9276    9267    9264      30    9279    9276    9267    9270      30
    9279    9276    9267    9273      30    9297    9294    9285    9282      30
    9297    9294    9285    9288      30    9297    9294    9285    9291      30
    9315    9312    9303    9300      30    9315    9312    9303    9306      30
    9315    9312    9303    9309      30    9333    9330    9321    9318      30
    9333    9330    9321    9324      30    9333    9330    9321    9327      30
    9351    9348    9339    9336      30    9351    9348    9339    9342      30
    9351    9348    9339    9345      30    9369    9366    9357    9354      30
    9369    9366    9357    9360      30    9369    9366    9357    9363      30
    9387    9384    9375    9372      30    9387    9384    9375    9378      30
    9387    9384    9375    9381      30    9405    9402    9393    9390      30
    9405    9402    9393    9396      30    9405    9402    9393    9399      30
    9423    9420    9411    9408      30    9423    9420    9411    9414      30
    9423    9420    9411    9417      30    9441    9438    9429    9426      30
    9441    9438    9429    9432      30    9441    9438    9429    9435      30
    9459    9456    9447    9444      30    9459    9456    9447    9450      30
    9459    9456    9447    9453      30    9477    9474    9465    9462      30
    9477    9474    9465    9468      30    9477    9474    9465    9471      30
    9495    9492    9483    9480      30    9495    9492    9483    9486      30
    9495    9492    9483    9489      30    9513    9510    9501    9498      30
    9513    9510    9501    9504      30    9513    9510    9501    9507      30
    9531    9528    9519    9516      30    9531    9528    9519    9522      30
    9531    9528    9519    9525      30    9549    9546    9537    9534      30
    9549    9546    9537    9540      30    9549    9546    9537    9543      30
    9567    9564    9555    9552      30    9567    9564    9555    9558      30
    9567    9564    9555    9561      30    9585    9582    9573    9570      30
    9585    9582    9573    9576      30    9585    9582    9573    9579      30
    9603    9600    9591    9588      30    9603    9600    9591    9594      30
    9603    9600    9591    9597      30    9621    9618    9609    9606      30
    9621    9618    9609    9612      30    9621    9618    9609    9615      30
    9639    9636    9627    9624      30    9639    9636    9627    9630      30
    9639    9636    9627    9633      30    9657    9654    9645    9642      30
    9657    9654    9645    9648      30    9657    9654    9645    9651      30
    9675    9672    9663    9660      30    9675    9672    9663    9666      30
    9675    9672    9663    9669      30    9693    9690    9681    9678      30
    9693    9690    9681    9684      30    9693    9690    9681    9687      30
    9711    9708    9699    9696      30    9711    9708    9699    9702      30
    9711    9708    9699    9705      30    9729    9726    9717    9714      30
    9729    9726    9717    9720      30    9729    9726    9717    9723      30
    9747    9744    9735    9732      30    9747    9744    9735    9738      30
    9747    9744    9735    9741      30    9765    9762    9753    9750      30
    9765    9762    9753    9756      30    9765    9762    9753    9759      30
    9783    9780    9771    9768      30    9783    9780    9771    9774      30
    9783    9780    9771    9777      30    9801    9798    9789    9786      30
    9801    9798    9789    9792      30    9801    9798    9789    9795      30
    9819    9816    9807    9804      30    9819    9816    9807    9810      30
    9819    9816    9807    9813      30    9837    9834    9825    9822      30
    9837    9834    9825    9828      30    9837    9834    9825    9831      30
    9855    9852    9843    9840      30    9855    9852    9843    9846      30
    9855    9852    9843    9849      30    9873    9870    9861    9858      30
    9873    9870    9861    9864      30    9873    9870    9861    9867      30
    9891    9888    9879    9876      30    9891    9888    9879    9882      30
    9891    9888    9879    9885      30    9909    9906    9897    9894      30
    9909    9906    9897    9900      30    9909    9906    9897    9903      30
    9927    9924    9915    9912      30    9927    9924    9915    9918      30
    9927    9924    9915    9921      30    9945    9942    9933    9930      30
    9945    9942    9933    9936      30    9945    9942    9933    9939      30
    9963    9960    9951    9948      30    9963    9960    9951    9954      30
    9963    9960    9951    9957      30    9981    9978    9969    9966      30
    9981    9978    9969    9972      30    9981    9978    9969    9975      30
    9999    9996    9987    9984      30    9999    9996    9987    9990      30
    9999    9996    9987    9993      30   10017   10014   10005   10002      30
   10017   10014   10005   10008      30   10017   10014   10005   10011      30
   10035   10032   10023   10020      30   10035   10032   10023   10026      30
   10035   10032   10023   10029      30   10053   10050   10041   10038      30
   10053   10050   10041   10044      30   10053   10050   10041   10047      30
   10071   10068   10059   10056      30   10071   10068   10059   10062      30
   10071   10068   10059   10065      30   10089   10086   10077   10074      30
   10089   10086   10077   10080      30   10089   10086   10077   10083      30
   10107   10104   10095   10092      30   10107   10104   10095   10098      30
   10107   10104   10095   10101      30   10125   10122   10113   10110      30
   10125   10122   10113   10116      30   10125   10122   10113   10119      30
   10143   10140   10131   10128      30   10143   10140   10131   10134      30
   10143   10140   10131   10137      30   10161   10158   10149   10146      30
   10161   10158   10149   10152      30   10161   10158   10149   10155      30
   10179   10176   10167   10164      30   10179   10176   10167   10170      30
   10179   10176   10167   10173      30   10197   10194   10185   10182      30
   10197   10194   10185   10188      30   10197   10194   10185   10191      30
   10215   10212   10203   10200      30   10215   10212   10203   10206      30
   10215   10212   10203   10209      30   10233   10230   10221   10218      30
   10233   10230   10221   10224      30   10233   10230   10221   10227      30
   10251   10248   10239   10236      30   10251   10248   10239   10242      30
   10251   10248   10239   10245      30   10269   10266   10257   10254      30
   10269   10266   10257   10260      30   10269   10266   10257   10263      30
   10287   10284   10275   10272      30   10287   10284   10275   10278      30
   10287   10284   10275   10281      30   10305   10302   10293   10290      30
   10305   10302   10293   10296      30   10305   10302   10293   10299      30
   10323   10320   10311   10308      30   10323   10320   10311   10314      30
   10323   10320   10311   10317      30   10341   10338   10329   10326      30
   10341   10338   10329   10332      30   10341   10338   10329   10335      30
   10359   10356   10347   10344      30   10359   10356   10347   10350      30
   10359   10356   10347   10353      30   10377   10374   10365   10362      30
   10377   10374   10365   10368      30   10377   10374   10365   10371      30
   10395   10392   10383   10380      30   10395   10392   10383   10386      30
   10395   10392   10383   10389      30   10413   10410   10401   10398      30
   10413   10410   10401   10404      30   10413   10410   10401   10407      30
   10431   10428   10419   10416      30   10431   10428   10419   10422      30
   10431   10428   10419   10425      30   10449   10446   10437   10434      30
   10449   10446   10437   10440      30   10449   10446   10437   10443      30
   10467   10464   10455   10452      30   10467   10464   10455   10458      30
   10467   10464   10455   10461      30   10485   10482   10473   10470      30
   10485   10482   10473   10476      30   10485   10482   10473   10479      30
   10503   10500   10491   10488      30   10503   10500   10491   10494      30
   10503   10500   10491   10497      30   10521   10518   10509   10506      30
   10521   10518   10509   10512      30   10521   10518   10509   10515      30
   10539   10536   10527   10524      30   10539   10536   10527   10530      30
   10539   10536   10527   10533      30   10557   10554   10545   10542      30
   10557   10554   10545   10548      30   10557   10554   10545   10551      30
   10575   10572   10563   10560      30   10575   10572   10563   10566      30
   10575   10572   10563   10569      30   10593   10590   10581   10578      30
   10593   10590   10581   10584      30   10593   10590   10581   10587      30
   10611   10608   10599   10596      30   10611   10608   10599   10602      30
   10611   10608   10599   10605      30   10629   10626   10617   10614      30
   10629   10626   10617   10620      30   10629   10626   10617   10623      30
   10647   10644   10635   10632      30   10647   10644   10635   10638      30
   10647   10644   10635   10641      30   10665   10662   10653   10650      30
   10665   10662   10653   10656      30   10665   10662   10653   10659      30
   10683   10680   10671   10668      30   10683   10680   10671   10674      30
   10683   10680   10671   10677      30   10701   10698   10689   10686      30
   10701   10698   10689   10692      30   10701   10698   10689   10695      30
   10719   10716   10707   10704      30   10719   10716   10707   10710      30
   10719   10716   10707   10713      30   10737   10734   10725   10722      30
   10737   10734   10725   10728      30   10737   10734   10725   10731      30
   10755   10752   10743   10740      30   10755   10752   10743   10746      30
   10755   10752   10743   10749      30   10773   10770   10761   10758      30
   10773   10770   10761   10764      30   10773   10770   10761   10767      30
   10791   10788   10779   10776      30   10791   10788   10779   10782      30
   10791   10788   10779   10785      30   10809   10806   10797   10794      30
   10809   10806   10797   10800      30   10809   10806   10797   10803      30
   10827   10824   10815   10812      30   10827   10824   10815   10818      30
   10827   10824   10815   10821      30   10845   10842   10833   10830      30
   10845   10842   10833   10836      30   10845   10842   10833   10839      30
   10863   10860   10851   10848      30   10863   10860   10851   10854      30
   10863   10860   10851   10857      30   10881   10878   10869   10866      30
   10881   10878   10869   10872      30   10881   10878   10869   10875      30
   10899   10896   10887   10884      30   10899   10896   10887   10890      30
   10899   10896   10887   10893      30   10917   10914   10905   10902      30
   10917   10914   10905   10908      30   10917   10914   10905   10911      30
   10935   10932   10923   10920      30   10935   10932   10923   10926      30
   10935   10932   10923   10929      30   10953   10950   10941   10938      30
   10953   10950   10941   10944      30   10953   10950   10941   10947      30
   10971   10968   10959   10956      30   10971   10968   10959   10962      30
   10971   10968   10959   10965      30   10989   10986   10977   10974      30
   10989   10986   10977   10980      30   10989   10986   10977   10983      30
   11007   11004   10995   10992      30   11007   11004   10995   10998      30
   11007   11004   10995   11001      30   11025   11022   11013   11010      30
   11025   11022   11013   11016      30   11025   11022   11013   11019      30
   11043   11040   11031   11028      30   11043   11040   11031   11034      30
   11043   11040   11031   11037      30   11061   11058   11049   11046      30
   11061   11058   11049   11052      30   11061   11058   11049   11055      30
   11079   11076   11067   11064      30   11079   11076   11067   11070      30
   11079   11076   11067   11073      30   11097   11094   11085   11082      30
   11097   11094   11085   11088      30   11097   11094   11085   11091      30
   11115   11112   11103   11100      30   11115   11112   11103   11106      30
   11115   11112   11103   11109      30   11133   11130   11121   11118      30
   11133   11130   11121   11124      30   11133   11130   11121   11127      30
   11151   11148   11139   11136      30   11151   11148   11139   11142      30
   11151   11148   11139   11145      30   11169   11166   11157   11154      30
   11169   11166   11157   11160      30   11169   11166   11157   11163      30
   11187   11184   11175   11172      30   11187   11184   11175   11178      30
   11187   11184   11175   11181      30   11205   11202   11193   11190      30
   11205   11202   11193   11196      30   11205   11202   11193   11199      30
   11223   11220   11211   11208      30   11223   11220   11211   11214      30
   11223   11220   11211   11217      30   11241   11238   11229   11226      30
   11241   11238   11229   11232      30   11241   11238   11229   11235      30
   11259   11256   11247   11244      30   11259   11256   11247   11250      30
   11259   11256   11247   11253      30   11277   11274   11265   11262      30
   11277   11274   11265   11268      30   11277   11274   11265   11271      30
   11295   11292   11283   11280      30   11295   11292   11283   11286      30
   11295   11292   11283   11289      30   11313   11310   11301   11298      30
   11313   11310   11301   11304      30   11313   11310   11301   11307      30
   11331   11328   11319   11316      30   11331   11328   11319   11322      30
   11331   11328   11319   11325      30   11349   11346   11337   11334      30
   11349   11346   11337   11340      30   11349   11346   11337   11343      30
   11367   11364   11355   11352      30   11367   11364   11355   11358      30
   11367   11364   11355   11361      30   11385   11382   11373   11370      30
   11385   11382   11373   11376      30   11385   11382   11373   11379      30
   11403   11400   11391   11388      30   11403   11400   11391   11394      30
   11403   11400   11391   11397      30   11421   11418   11409   11406      30
   11421   11418   11409   11412      30   11421   11418   11409   11415      30
   11439   11436   11427   11424      30   11439   11436   11427   11430      30
   11439   11436   11427   11433      30   11457   11454   11445   11442      30
   11457   11454   11445   11448      30   11457   11454   11445   11451      30
   11475   11472   11463   11460      30   11475   11472   11463   11466      30
   11475   11472   11463   11469      30   11493   11490   11481   11478      30
   11493   11490   11481   11484      30   11493   11490   11481   11487      30
   11511   11508   11499   11496      30   11511   11508   11499   11502      30
   11511   11508   11499   11505      30   11529   11526   11517   11514      30
   11529   11526   11517   11520      30   11529   11526   11517   11523      30
   11547   11544   11535   11532      30   11547   11544   11535   11538      30
   11547   11544   11535   11541      30   11565   11562   11553   11550      30
   11565   11562   11553   11556      30   11565   11562   11553   11559      30
   11583   11580   11571   11568      30   11583   11580   11571   11574      30
   11583   11580   11571   11577      30   11601   11598   11589   11586      30
   11601   11598   11589   11592      30   11601   11598   11589   11595      30
   11619   11616   11607   11604      30   11619   11616   11607   11610      30
   11619   11616   11607   11613      30   11637   11634   11625   11622      30
   11637   11634   11625   11628      30   11637   11634   11625   11631      30
   11655   11652   11643   11640      30   11655   11652   11643   11646      30
   11655   11652   11643   11649      30   11673   11670   11661   11658      30
   11673   11670   11661   11664      30   11673   11670   11661   11667      30
   11691   11688   11679   11676      30   11691   11688   11679   11682      30
   11691   11688   11679   11685      30   11709   11706   11697   11694      30
   11709   11706   11697   11700      30   11709   11706   11697   11703      30
   11727   11724   11715   11712      30   11727   11724   11715   11718      30
   11727   11724   11715   11721      30   11745   11742   11733   11730      30
   11745   11742   11733   11736      30   11745   11742   11733   11739      30
   11763   11760   11751   11748      30   11763   11760   11751   11754      30
   11763   11760   11751   11757      30   11781   11778   11769   11766      30
   11781   11778   11769   11772      30   11781   11778   11769   11775      30
   11799   11796   11787   11784      30   11799   11796   11787   11790      30
   11799   11796   11787   11793      30   11817   11814   11805   11802      30
   11817   11814   11805   11808      30   11817   11814   11805   11811      30
   11835   11832   11823   11820      30   11835   11832   11823   11826      30
   11835   11832   11823   11829      30   11853   11850   11841   11838      30
   11853   11850   11841   11844      30   11853   11850   11841   11847      30
   11871   11868   11859   11856      30   11871   11868   11859   11862      30
   11871   11868   11859   11865      30   11889   11886   11877   11874      30
   11889   11886   11877   11880      30   11889   11886   11877   11883      30
   11907   11904   11895   11892      30   11907   11904   11895   11898      30
   11907   11904   11895   11901      30   11925   11922   11913   11910      30
   11925   11922   11913   11916      30   11925   11922   11913   11919      30
   11943   11940   11931   11928      30   11943   11940   11931   11934      30
   11943   11940   11931   11937      30   11961   11958   11949   11946      30
   11961   11958   11949   11952      30   11961   11958   11949   11955      30
   11979   11976   11967   11964      30   11979   11976   11967   11970      30
   11979   11976   11967   11973      30   11997   11994   11985   11982      30
   11997   11994   11985   11988      30   11997   11994   11985   11991      30
   12015   12012   12003   12000      30   12015   12012   12003   12006      30
   12015   12012   12003   12009      30   12033   12030   12021   12018      30
   12033   12030   12021   12024      30   12033   12030   12021   12027      30
   12051   12048   12039   12036      30   12051   12048   12039   12042      30
   12051   12048   12039   12045      30   12069   12066   12057   12054      30
   12069   12066   12057   12060      30   12069   12066   12057   12063      30
   12087   12084   12075   12072      30   12087   12084   12075   12078      30
   12087   12084   12075   12081      30   12105   12102   12093   12090      30
   12105   12102   12093   12096      30   12105   12102   12093   12099      30
   12123   12120   12111   12108      30   12123   12120   12111   12114      30
   12123   12120   12111   12117      30   12141   12138   12129   12126      30
   12141   12138   12129   12132      30   12141   12138   12129   12135      30
   12159   12156   12147   12144      30   12159   12156   12147   12150      30
   12159   12156   12147   12153      30   12177   12174   12165   12162      30
   12177   12174   12165   12168      30   12177   12174   12165   12171      30
   12195   12192   12183   12180      30   12195   12192   12183   12186      30
   12195   12192   12183   12189      30   12213   12210   12201   12198      30
   12213   12210   12201   12204      30   12213   12210   12201   12207      30
   12231   12228   12219   12216      30   12231   12228   12219   12222      30
   12231   12228   12219   12225      30   12249   12246   12237   12234      30
   12249   12246   12237   12240      30   12249   12246   12237   12243      30
   12267   12264   12255   12252      30   12267   12264   12255   12258      30
   12267   12264   12255   12261      30   12285   12282   12273   12270      30
   12285   12282   12273   12276      30   12285   12282   12273   12279      30
   12303   12300   12291   12288      30   12303   12300   12291   12294      30
   12303   12300   12291   12297      30   12321   12318   12309   12306      30
   12321   12318   12309   12312      30   12321   12318   12309   12315      30
   12339   12336   12327   12324      30   12339   12336   12327   12330      30
   12339   12336   12327   12333      30   12357   12354   12345   12342      30
   12357   12354   12345   12348      30   12357   12354   12345   12351      30
   12375   12372   12363   12360      30   12375   12372   12363   12366      30
   12375   12372   12363   12369      30   12393   12390   12381   12378      30
   12393   12390   12381   12384      30   12393   12390   12381   12387      30
   12411   12408   12399   12396      30   12411   12408   12399   12402      30
   12411   12408   12399   12405      30   12429   12426   12417   12414      30
   12429   12426   12417   12420      30   12429   12426   12417   12423      30
   12447   12444   12435   12432      30   12447   12444   12435   12438      30
   12447   12444   12435   12441      30   12465   12462   12453   12450      30
   12465   12462   12453   12456      30   12465   12462   12453   12459      30
   12483   12480   12471   12468      30   12483   12480   12471   12474      30
   12483   12480   12471   12477      30   12501   12498   12489   12486      30
   12501   12498   12489   12492      30   12501   12498   12489   12495      30
   12519   12516   12507   12504      30   12519   12516   12507   12510      30
   12519   12516   12507   12513      30   12537   12534   12525   12522      30
   12537   12534   12525   12528      30   12537   12534   12525   12531      30
   12555   12552   12543   12540      30   12555   12552   12543   12546      30
   12555   12552   12543   12549      30   12573   12570   12561   12558      30
   12573   12570   12561   12564      30   12573   12570   12561   12567      30
   12591   12588   12579   12576      30   12591   12588   12579   12582      30
   12591   12588   12579   12585      30   12609   12606   12597   12594      30
   12609   12606   12597   12600      30   12609   12606   12597   12603      30
   12627   12624   12615   12612      30   12627   12624   12615   12618      30
   12627   12624   12615   12621      30   12645   12642   12633   12630      30
   12645   12642   12633   12636      30   12645   12642   12633   12639      30
   12663   12660   12651   12648      30   12663   12660   12651   12654      30
   12663   12660   12651   12657      30   12681   12678   12669   12666      30
   12681   12678   12669   12672      30   12681   12678   12669   12675      30
   12699   12696   12687   12684      30   12699   12696   12687   12690      30
   12699   12696   12687   12693      30   12717   12714   12705   12702      30
   12717   12714   12705   12708      30   12717   12714   12705   12711      30
   12735   12732   12723   12720      30   12735   12732   12723   12726      30
   12735   12732   12723   12729      30   12753   12750   12741   12738      30
   12753   12750   12741   12744      30   12753   12750   12741   12747      30
   12771   12768   12759   12756      30   12771   12768   12759   12762      30
   12771   12768   12759   12765      30   12789   12786   12777   12774      30
   12789   12786   12777   12780      30   12789   12786   12777   12783      30
   12807   12804   12795   12792      30   12807   12804   12795   12798      30
   12807   12804   12795   12801      30   12825   12822   12813   12810      30
   12825   12822   12813   12816      30   12825   12822   12813   12819      30
   12843   12840   12831   12828      30   12843   12840   12831   12834      30
   12843   12840   12831   12837      30   12861   12858   12849   12846      30
   12861   12858   12849   12852      30   12861   12858   12849   12855      30
   12879   12876   12867   12864      30   12879   12876   12867   12870      30
   12879   12876   12867   12873      30   12897   12894   12885   12882      30
   12897   12894   12885   12888      30   12897   12894   12885   12891      30
   12915   12912   12903   12900      30   12915   12912   12903   12906      30
   12915   12912   12903   12909      30   12933   12930   12921   12918      30
   12933   12930   12921   12924      30   12933   12930   12921   12927      30
   12951   12948   12939   12936      30   12951   12948   12939   12942      30
   12951   12948   12939   12945      30   12969   12966   12957   12954      30
   12969   12966   12957   12960      30   12969   12966   12957   12963      30
   12987   12984   12975   12972      30   12987   12984   12975   12978      30
   12987   12984   12975   12981      30   13005   13002   12993   12990      30
   13005   13002   12993   12996      30   13005   13002   12993   12999      30
   13023   13020   13011   13008      30   13023   13020   13011   13014      30
   13023   13020   13011   13017      30   13041   13038   13029   13026      30
   13041   13038   13029   13032      30   13041   13038   13029   13035      30
   13059   13056   13047   13044      30   13059   13056   13047   13050      30
   13059   13056   13047   13053      30   13077   13074   13065   13062      30
   13077   13074   13065   13068      30   13077   13074   13065   13071      30
   13095   13092   13083   13080      30   13095   13092   13083   13086      30
   13095   13092   13083   13089      30   13113   13110   13101   13098      30
   13113   13110   13101   13104      30   13113   13110   13101   13107      30
   13131   13128   13119   13116      30   13131   13128   13119   13122      30
   13131   13128   13119   13125      30   13149   13146   13137   13134      30
   13149   13146   13137   13140      30   13149   13146   13137   13143      30
   13167   13164   13155   13152      30   13167   13164   13155   13158      30
   13167   13164   13155   13161      30   13185   13182   13173   13170      30
   13185   13182   13173   13176      30   13185   13182   13173   13179      30
   13203   13200   13191   13188      30   13203   13200   13191   13194      30
   13203   13200   13191   13197      30   13221   13218   13209   13206      30
   13221   13218   13209   13212      30   13221   13218   13209   13215      30
   13239   13236   13227   13224      30   13239   13236   13227   13230      30
   13239   13236   13227   13233      30   13257   13254   13245   13242      30
   13257   13254   13245   13248      30   13257   13254   13245   13251      30
   13275   13272   13263   13260      30   13275   13272   13263   13266      30
   13275   13272   13263   13269      30   13293   13290   13281   13278      30
   13293   13290   13281   13284      30   13293   13290   13281   13287      30
   13311   13308   13299   13296      30   13311   13308   13299   13302      30
   13311   13308   13299   13305      30   13329   13326   13317   13314      30
   13329   13326   13317   13320      30   13329   13326   13317   13323      30
   13347   13344   13335   13332      30   13347   13344   13335   13338      30
   13347   13344   13335   13341      30   13365   13362   13353   13350      30
   13365   13362   13353   13356      30   13365   13362   13353   13359      30
   13383   13380   13371   13368      30   13383   13380   13371   13374      30
   13383   13380   13371   13377      30   13401   13398   13389   13386      30
   13401   13398   13389   13392      30   13401   13398   13389   13395      30
   13419   13416   13407   13404      30   13419   13416   13407   13410      30
   13419   13416   13407   13413      30   13437   13434   13425   13422      30
   13437   13434   13425   13428      30   13437   13434   13425   13431      30
   13455   13452   13443   13440      30   13455   13452   13443   13446      30
   13455   13452   13443   13449      30   13473   13470   13461   13458      30
   13473   13470   13461   13464      30   13473   13470   13461   13467      30
   13491   13488   13479   13476      30   13491   13488   13479   13482      30
   13491   13488   13479   13485      30   13509   13506   13497   13494      30
   13509   13506   13497   13500      30   13509   13506   13497   13503      30
   13527   13524   13515   13512      30   13527   13524   13515   13518      30
   13527   13524   13515   13521      30   13545   13542   13533   13530      30
   13545   13542   13533   13536      30   13545   13542   13533   13539      30
   13563   13560   13551   13548      30   13563   13560   13551   13554      30
   13563   13560   13551   13557      30   13581   13578   13569   13566      30
   13581   13578   13569   13572      30   13581   13578   13569   13575      30
   13599   13596   13587   13584      30   13599   13596   13587   13590      30
   13599   13596   13587   13593      30   13617   13614   13605   13602      30
   13617   13614   13605   13608      30   13617   13614   13605   13611      30
   13635   13632   13623   13620      30   13635   13632   13623   13626      30
   13635   13632   13623   13629      30   13653   13650   13641   13638      30
   13653   13650   13641   13644      30   13653   13650   13641   13647      30
   13671   13668   13659   13656      30   13671   13668   13659   13662      30
   13671   13668   13659   13665      30   13689   13686   13677   13674      30
   13689   13686   13677   13680      30   13689   13686   13677   13683      30
   13707   13704   13695   13692      30   13707   13704   13695   13698      30
   13707   13704   13695   13701      30   13725   13722   13713   13710      30
   13725   13722   13713   13716      30   13725   13722   13713   13719      30
   13743   13740   13731   13728      30   13743   13740   13731   13734      30
   13743   13740   13731   13737      30   13761   13758   13749   13746      30
   13761   13758   13749   13752      30   13761   13758   13749   13755      30
   13779   13776   13767   13764      30   13779   13776   13767   13770      30
   13779   13776   13767   13773      30   13797   13794   13785   13782      30
   13797   13794   13785   13788      30   13797   13794   13785   13791      30
   13815   13812   13803   13800      30   13815   13812   13803   13806      30
   13815   13812   13803   13809      30   13833   13830   13821   13818      30
   13833   13830   13821   13824      30   13833   13830   13821   13827      30
   13851   13848   13839   13836      30   13851   13848   13839   13842      30
   13851   13848   13839   13845      30   13869   13866   13857   13854      30
   13869   13866   13857   13860      30   13869   13866   13857   13863      30
   13887   13884   13875   13872      30   13887   13884   13875   13878      30
   13887   13884   13875   13881      30   13905   13902   13893   13890      30
   13905   13902   13893   13896      30   13905   13902   13893   13899      30
   13923   13920   13911   13908      30   13923   13920   13911   13914      30
   13923   13920   13911   13917      30   13941   13938   13929   13926      30
   13941   13938   13929   13932      30   13941   13938   13929   13935      30
   13959   13956   13947   13944      30   13959   13956   13947   13950      30
   13959   13956   13947   13953      30   13977   13974   13965   13962      30
   13977   13974   13965   13968      30   13977   13974   13965   13971      30
   13995   13992   13983   13980      30   13995   13992   13983   13986      30
   13995   13992   13983   13989      30   14013   14010   14001   13998      30
   14013   14010   14001   14004      30   14013   14010   14001   14007      30
   14031   14028   14019   14016      30   14031   14028   14019   14022      30
   14031   14028   14019   14025      30   14049   14046   14037   14034      30
   14049   14046   14037   14040      30   14049   14046   14037   14043      30
   14067   14064   14055   14052      30   14067   14064   14055   14058      30
   14067   14064   14055   14061      30   14085   14082   14073   14070      30
   14085   14082   14073   14076      30   14085   14082   14073   14079      30
   14103   14100   14091   14088      30   14103   14100   14091   14094      30
   14103   14100   14091   14097      30   14121   14118   14109   14106      30
   14121   14118   14109   14112      30   14121   14118   14109   14115      30
   14139   14136   14127   14124      30   14139   14136   14127   14130      30
   14139   14136   14127   14133      30   14157   14154   14145   14142      30
   14157   14154   14145   14148      30   14157   14154   14145   14151      30
   14175   14172   14163   14160      30   14175   14172   14163   14166      30
   14175   14172   14163   14169      30   14193   14190   14181   14178      30
   14193   14190   14181   14184      30   14193   14190   14181   14187      30
   14211   14208   14199   14196      30   14211   14208   14199   14202      30
   14211   14208   14199   14205      30   14229   14226   14217   14214      30
   14229   14226   14217   14220      30   14229   14226   14217   14223      30
   14247   14244   14235   14232      30   14247   14244   14235   14238      30
   14247   14244   14235   14241      30   14265   14262   14253   14250      30
   14265   14262   14253   14256      30   14265   14262   14253   14259      30
   14283   14280   14271   14268      30   14283   14280   14271   14274      30
   14283   14280   14271   14277      30   14301   14298   14289   14286      30
   14301   14298   14289   14292      30   14301   14298   14289   14295      30
   14319   14316   14307   14304      30   14319   14316   14307   14310      30
   14319   14316   14307   14313      30   14337   14334   14325   14322      30
   14337   14334   14325   14328      30   14337   14334   14325   14331      30
   14355   14352   14343   14340      30   14355   14352   14343   14346      30
   14355   14352   14343   14349      30   14373   14370   14361   14358      30
   14373   14370   14361   14364      30   14373   14370   14361   14367      30
   14391   14388   14379   14376      30   14391   14388   14379   14382      30
   14391   14388   14379   14385      30   14409   14406   14397   14394      30
   14409   14406   14397   14400      30   14409   14406   14397   14403      30
   14427   14424   14415   14412      30   14427   14424   14415   14418      30
   14427   14424   14415   14421      30   14445   14442   14433   14430      30
   14445   14442   14433   14436      30   14445   14442   14433   14439      30
   14463   14460   14451   14448      30   14463   14460   14451   14454      30
   14463   14460   14451   14457      30   14481   14478   14469   14466      30
   14481   14478   14469   14472      30   14481   14478   14469   14475      30
   14499   14496   14487   14484      30   14499   14496   14487   14490      30
   14499   14496   14487   14493      30   14517   14514   14505   14502      30
   14517   14514   14505   14508      30   14517   14514   14505   14511      30
   14535   14532   14523   14520      30   14535   14532   14523   14526      30
   14535   14532   14523   14529      30   14553   14550   14541   14538      30
   14553   14550   14541   14544      30   14553   14550   14541   14547      30
   14571   14568   14559   14556      30   14571   14568   14559   14562      30
   14571   14568   14559   14565      30   14589   14586   14577   14574      30
   14589   14586   14577   14580      30   14589   14586   14577   14583      30
   14607   14604   14595   14592      30   14607   14604   14595   14598      30
   14607   14604   14595   14601      30   14625   14622   14613   14610      30
   14625   14622   14613   14616      30   14625   14622   14613   14619      30
   14643   14640   14631   14628      30   14643   14640   14631   14634      30
   14643   14640   14631   14637      30   14661   14658   14649   14646      30
   14661   14658   14649   14652      30   14661   14658   14649   14655      30
   14679   14676   14667   14664      30   14679   14676   14667   14670      30
   14679   14676   14667   14673      30   14697   14694   14685   14682      30
   14697   14694   14685   14688      30   14697   14694   14685   14691      30
   14715   14712   14703   14700      30   14715   14712   14703   14706      30
   14715   14712   14703   14709      30   14733   14730   14721   14718      30
   14733   14730   14721   14724      30   14733   14730   14721   14727      30
   14751   14748   14739   14736      30   14751   14748   14739   14742      30
   14751   14748   14739   14745      30   14769   14766   14757   14754      30
   14769   14766   14757   14760      30   14769   14766   14757   14763      30
   14787   14784   14775   14772      30   14787   14784   14775   14778      30
   14787   14784   14775   14781      30   14805   14802   14793   14790      30
   14805   14802   14793   14796      30   14805   14802   14793   14799      30
   14823   14820   14811   14808      30   14823   14820   14811   14814      30
   14823   14820   14811   14817      30   14841   14838   14829   14826      30
   14841   14838   14829   14832      30   14841   14838   14829   14835      30
   14859   14856   14847   14844      30   14859   14856   14847   14850      30
   14859   14856   14847   14853      30   14877   14874   14865   14862      30
   14877   14874   14865   14868      30   14877   14874   14865   14871      30
   14895   14892   14883   14880      30   14895   14892   14883   14886      30
   14895   14892   14883   14889      30   14913   14910   14901   14898      30
   14913   14910   14901   14904      30   14913   14910   14901   14907      30
   14931   14928   14919   14916      30   14931   14928   14919   14922      30
   14931   14928   14919   14925      30   14949   14946   14937   14934      30
   14949   14946   14937   14940      30   14949   14946   14937   14943      30
   14967   14964   14955   14952      30   14967   14964   14955   14958      30
   14967   14964   14955   14961      30   14985   14982   14973   14970      30
   14985   14982   14973   14976      30   14985   14982   14973   14979      30
   15003   15000   14991   14988      30   15003   15000   14991   14994      30
   15003   15000   14991   14997      30   15021   15018   15009   15006      30
   15021   15018   15009   15012      30   15021   15018   15009   15015      30
   15039   15036   15027   15024      30   15039   15036   15027   15030      30
   15039   15036   15027   15033      30   15057   15054   15045   15042      30
   15057   15054   15045   15048      30   15057   15054   15045   15051      30
   15075   15072   15063   15060      30   15075   15072   15063   15066      30
   15075   15072   15063   15069      30   15093   15090   15081   15078      30
   15093   15090   15081   15084      30   15093   15090   15081   15087      30
   15111   15108   15099   15096      30   15111   15108   15099   15102      30
   15111   15108   15099   15105      30   15129   15126   15117   15114      30
   15129   15126   15117   15120      30   15129   15126   15117   15123      30
   15147   15144   15135   15132      30   15147   15144   15135   15138      30
   15147   15144   15135   15141      30   15165   15162   15153   15150      30
   15165   15162   15153   15156      30   15165   15162   15153   15159      30
   15183   15180   15171   15168      30   15183   15180   15171   15174      30
   15183   15180   15171   15177      30   15201   15198   15189   15186      30
   15201   15198   15189   15192      30   15201   15198   15189   15195      30
   15219   15216   15207   15204      30   15219   15216   15207   15210      30
   15219   15216   15207   15213      30   15237   15234   15225   15222      30
   15237   15234   15225   15228      30   15237   15234   15225   15231      30
   15255   15252   15243   15240      30   15255   15252   15243   15246      30
   15255   15252   15243   15249      30   15273   15270   15261   15258      30
   15273   15270   15261   15264      30   15273   15270   15261   15267      30
   15291   15288   15279   15276      30   15291   15288   15279   15282      30
   15291   15288   15279   15285      30   15309   15306   15297   15294      30
   15309   15306   15297   15300      30   15309   15306   15297   15303      30
   15327   15324   15315   15312      30   15327   15324   15315   15318      30
   15327   15324   15315   15321      30   15345   15342   15333   15330      30
   15345   15342   15333   15336      30   15345   15342   15333   15339      30
   15363   15360   15351   15348      30   15363   15360   15351   15354      30
   15363   15360   15351   15357      30   15381   15378   15369   15366      30
   15381   15378   15369   15372      30   15381   15378   15369   15375      30
   15399   15396   15387   15384      30   15399   15396   15387   15390      30
   15399   15396   15387   15393      30   15417   15414   15405   15402      30
   15417   15414   15405   15408      30   15417   15414   15405   15411      30
   15435   15432   15423   15420      30   15435   15432   15423   15426      30
   15435   15432   15423   15429      30   15453   15450   15441   15438      30
   15453   15450   15441   15444      30   15453   15450   15441   15447      30
   15471   15468   15459   15456      30   15471   15468   15459   15462      30
   15471   15468   15459   15465      30   15489   15486   15477   15474      30
   15489   15486   15477   15480      30   15489   15486   15477   15483      30
   15507   15504   15495   15492      30   15507   15504   15495   15498      30
   15507   15504   15495   15501      30   15525   15522   15513   15510      30
   15525   15522   15513   15516      30   15525   15522   15513   15519      30
   15543   15540   15531   15528      30   15543   15540   15531   15534      30
   15543   15540   15531   15537      30   15561   15558   15549   15546      30
   15561   15558   15549   15552      30   15561   15558   15549   15555      30
   15579   15576   15567   15564      30   15579   15576   15567   15570      30
   15579   15576   15567   15573      30   15597   15594   15585   15582      30
   15597   15594   15585   15588      30   15597   15594   15585   15591      30
   15615   15612   15603   15600      30   15615   15612   15603   15606      30
   15615   15612   15603   15609      30   15633   15630   15621   15618      30
   15633   15630   15621   15624      30   15633   15630   15621   15627      30
       3       0      -6    -441      35      69     141    -135    -138      35
     183     255    -249    -252      35     273     291    -285    -288      35
     480     492    -486    -489      35     486     504    -480    -483      35
%FLAG DIHEDRALS_WITHOUT_HYDROGEN                                                
%FORMAT(10I8)                                                                   
      60      39      75      78       2      60      39      75      90       2
      45      60      39      75       1      42      39      60      45       1
      42      39      75      78       5      42      39      75      90       5
      39      60      45      48       1      39      75      90      69       1
      39      75      90      96       6      39      75     -90      96       7
      39      75     -90      96       8      39      75     -90      96       9
     441       0       6      18       6     441       0      -6      18       7
     441       0      -6      18       8     441       0      -6      18       9
      18       6      12      45      11      18       6     -12      45      12
      18       6     -12      45       8      18       6     -12      45       9
      15      12       6      18       1      15      12      45      48       5
      15      12      45      60       5     441       0       6      12      13
     441       0      -6      12      14     441       0      -6      12      15
     441       0      -6      12       9      12       6      18      27      16
      12      45      60      39       1       6       0     441     444       2
       6       0     441     462       2       6      12      45      48       2
       6      12      45      60       2       0       6      12      15       1
       0       6      12      45      18       0       6     -12      45      19
       0       6     -12      45      20       0       6     -12      45       9
       0       6      18      27      16       0     441     462     447       1
       0     441     462     468      11       0     441    -462     468      12
       0     441    -462     468       8       0     441    -462     468       9
      96      90      69     135      11      96      90     -69     135      12
      96      90     -69     135       8      96      90     -69     135       9
      90      69     135     141       2      90      96     105     111      21
      90      96    -105     111      22      90      96    -105     111      23
      90      96     105     123      21      90      96    -105     123      22
      90      96    -105     123      23      78      75      90      96       1
      75      90      69     135       1      75      90      96     105      16
      72      69      90      75       1      72      69      90      96       1
      72      69     135     141       2      69      90      75      78       1
      69      90      96     105      16      69     135     141     147      13
      69     135    -141     147      14      69     135    -141     147      15
      69     135    -141     147       9      69     135     141     153       6
      69     135    -141     153       7      69     135    -141     153       8
      69     135    -141     153       9     210     204     183     249      11
     210     204    -183     249      12     210     204    -183     249       8
     210     204    -183     249       9     204     183     249     255       2
     204     210     219     225      21     204     210    -219     225      22
     204     210    -219     225      23     204     210     219     237      21
     204     210    -219     237      22     204     210    -219     237      23
     192     189     204     210       1     189     204     183     249       1
     189     204     210     219      16     186     183     204     189       1
     186     183     204     210       1     186     183     249     255       2
     183     204     189     192       1     183     204     210     219      16
     183     249     255     261       6     183     249    -255     261       7
     183     249    -255     261       8     183     249    -255     261       9
     183     249     255     273      13     183     249    -255     273      14
     183     249    -255     273      15     183     249    -255     273       9
     153     141     147     189      11     153     141    -147     189      12
     153     141    -147     189       8     153     141    -147     189       9
     150     147     141     153       1     150     147     189     192       5
     150     147     189     204       5     147     141     153     159      16
     147     141     153     171      16     147     189     204     183       1
     147     189     204     210       6     147     189    -204     210       7
     147     189    -204     210       8     147     189    -204     210       9
     141     147     189     192       2     141     147     189     204       2
     135     141     147     150       1     135     141     147     189      18
     135     141    -147     189      19     135     141    -147     189      20
     135     141    -147     189       9     135     141     153     159      16
     135     141     153     171      16     276     273     285     291       2
     273     285     291     279      13     273     285    -291     279      14
     273     285    -291     279      15     273     285    -291     279       9
     273     285     291     297       6     273     285    -291     297       7
     273     285    -291     297       8     273     285    -291     297       9
     261     255     273     276       1     261     255     273     285      11
     261     255    -273     285      12     261     255    -273     285       8
     261     255    -273     285       9     255     273     285     291       2
     249     255     273     276       1     249     255     273     285      18
     249     255    -273     285      19     249     255    -273     285      20
     249     255    -273     285       9     297     291     279     315      11
     297     291    -279     315      12     297     291    -279     315       8
     297     291    -279     315       9     291     279     315     318       2
     291     279     315     330       2     285     291     279     315      18
     285     291    -279     315      19     285     291    -279     315      20
     285     291    -279     315       9     282     279     291     285       1
     282     279     291     297       1     282     279     315     318       5
     282     279     315     330       5     279     315     330     309       1
     279     315     330     336       6     279     315    -330     336       7
     279     315    -330     336       8     279     315    -330     336       9
     402     396     375     537      11     402     396    -375     537      12
     402     396    -375     537       8     402     396    -375     537       9
     396     375     537     540       2     396     375     537     552       2
     396     402     411     417      21     396     402    -411     417      22
     396     402    -411     417      23     396     402     411     429      21
     396     402    -411     429      22     396     402    -411     429      23
     384     381     396     402       1     381     396     375     537       1
     381     396     402     411      16     378     375     396     381       1
     378     375     396     402       1     378     375     537     540       5
     378     375     537     552       5     375     396     381     384       1
     375     396     402     411      16     375     537     552     531       1
     375     537     552     558       6     375     537    -552     558       7
     375     537    -552     558       8     375     537    -552     558       9
     336     330     309     381      11     336     330    -309     381      12
     336     330    -309     381       8     336     330    -309     381       9
     330     309     381     384       2     330     309     381     396       2
     330     336     345     351      21     330     336    -345     351      22
     330     336    -345     351      23     330     336     345     363      21
     330     336    -345     363      22     330     336    -345     363      23
     318     315     330     336       1     315     330     309     381       1
     315     330     336     345      16     312     309     330     315       1
     312     309     330     336       1     312     309     381     384       5
     312     309     381     396       5     309     330     315     318       1
     309     330     336     345      16     309     381     396     375       1
     309     381     396     402       6     309     381    -396     402       7
     309     381    -396     402       8     309     381    -396     402       9
     540     537     552     558       1     537     552     558     564      16
     537     552     558     576      16     534     531     552     537       1
     534     531     552     558       1     531     552     537     540       1
     531     552     558     564      16     531     552     558     576      16
     492     486     480     504      24     492     486    -480     504      25
     486     480     504     513      26     480     504     513     519      16
     474     468     513     504      16     474     468     513     519      16
     468     462     447     531       6     468     462    -447     531       7
     468     462    -447     531       8     468     462    -447     531       9
     468     513     504     480      16     462     447     531     534       5
     462     447     531     552       2     462     468     513     504      21
     462     468    -513     504      22     462     468    -513     504      23
     462     468     513     519      21     462     468    -513     519      22
     462     468    -513     519      23     450     447     462     468       1
     450     447     531     534       5     450     447     531     552       2
     447     462     468     474      13     447     462    -468     474      31
     447     462    -468     474      32     447     462    -468     474       9
     447     462     468     513      16     447     531     552     537       1
     447     531     552     558      11     447     531    -552     558      12
     447     531    -552     558       8     447     531    -552     558       9
     444     441     462     447       1     444     441     462     468       1
     441     462     447     450       1     441     462     447     531       1
     441     462     468     474      16     441     462     468     513      16
      12      48     -45     -60      33      60      75     -39     -42      34
       6      45     -12     -15      34      39      78     -75     -90      33
      90     135     -69     -72      34     147     192    -189    -204      33
     204     249    -183    -186      34     141     189    -147    -150      34
     255     285    -273    -276      34     291     315    -279    -282      34
     309     384    -381    -396      33     396     537    -375    -378      34
     279     318    -315    -330      33     330     381    -309    -312      34
     375     540    -537    -552      33     552     447    -531    -534      34
     531     450    -447    -462      33     462       0    -441    -444      34
%FLAG EXCLUDED_ATOMS_LIST                                                       
%FORMAT(10I8)                                                                   
       2       3       4       5       6       7       8       9      10      16
     148     149     150     155     156     157       3       4       5       7
     148     149     155       4       5       6       7       8       9      10
      11      12      13      16      17      21     148     149     155       5
       6       7       8       9      10      16     148       6       7       8
       9      10      14      16      17      18      19      20      21      22
      23     148       7      16      17      21       8       9      10      11
      12      13      16     148       9      10      11      12      13      10
      11      12      13      11      12      13      12      13      13       0
      15      16      17      21      22      23      24      26      27      28
      29      30      31      32      33      16      21      22      23      26
      27      31      17      18      19      20      21      22      23      26
      18      19      20      21      22      23      19      20      21      20
      21      21      22      23      26      27      31      23      26      26
      25      26      27      31      32      33      34      35      36      46
      47      48      49      50      52      26      31      32      33      46
      47      48      27      28      29      30      31      32      33      34
      35      36      46      28      29      30      31      32      33      29
      30      31      30      31      31      32      33      34      35      36
      37      38      42      46      47      48      33      34      35      36
      46      34      35      36      37      38      39      40      41      42
      43      44      45      46      35      36      37      38      42      36
      37      38      42      37      38      39      40      41      42      43
      44      45      38      39      40      41      42      43      44      45
      39      40      41      42      43      44      45      40      41      42
      41      42      42      43      44      45      44      45      45       0
      47      48      49      50      51      52      53      54      58      64
      48      49      50      52      49      50      51      52      53      54
      55      56      57      58      59      60      61      64      65      69
      50      51      52      53      54      58      64      51      52      53
      54      58      62      64      65      66      67      68      69      70
      71      52      64      65      69      53      54      55      56      57
      58      59      60      61      64      54      55      56      57      58
      59      60      61      55      56      57      58      59      60      61
      56      57      58      57      58      58      59      60      61      60
      61      61       0      63      64      65      69      70      71      72
      73      74      84      85      86      87      88      92      64      69
      70      71      84      85      86      65      66      67      68      69
      70      71      72      73      74      84      66      67      68      69
      70      71      67      68      69      68      69      69      70      71
      72      73      74      75      76      80      84      85      86      71
      72      73      74      84      72      73      74      75      76      77
      78      79      80      81      82      83      84      73      74      75
      76      80      74      75      76      80      75      76      77      78
      79      80      81      82      83      76      77      78      79      80
      81      82      83      77      78      79      80      81      82      83
      78      79      80      79      80      80      81      82      83      82
      83      83       0      85      86      87      88      89      90      91
      92      93      96      86      87      88      92      87      88      89
      90      91      92      93      96      97      98      88      89      90
      91      92      93      96      89      90      91      92      93      96
      90      91      92      91      92      92      93      94      96      97
      98      99     100      96      97      98      95      96      97      98
      99     100     101     102     103     104     106     107     108     109
     110     111     112     113      96      98      99     100     106     107
     111      97      98      99     100     101     102     103     106      98
      99     100      99     100     101     102     103     106     107     111
     100     101     102     103     106     101     102     103     106     102
     103     103       0     105     106     107     111     112     113     114
     115     116     126     128     129     130     131     132     133     134
     135     106     111     112     113     128     129     133     107     108
     109     110     111     112     113     114     115     116     128     108
     109     110     111     112     113     109     110     111     110     111
     111     112     113     114     115     116     117     118     122     128
     129     133     113     114     115     116     128     114     115     116
     117     118     119     120     121     122     123     124     125     128
     115     116     117     118     122     116     117     118     122     117
     118     119     120     121     122     123     124     125     118     119
     120     121     122     123     124     125     119     120     121     122
     123     124     125     120     121     122     121     122     122     123
     124     125     124     125     125       0     127     128     129     133
     134     135     136     137     138     178     180     181     182     183
     184     185     186     187     128     133     134     135     180     181
     185     129     130     131     132     133     134     135     136     137
     138     180     130     131     132     133     134     135     131     132
     133     132     133     133     134     135     136     137     138     139
     140     144     180     181     185     135     136     137     138     180
     136     137     138     139     140     141     142     143     144     145
     146     147     180     137     138     139     140     144     138     139
     140     144     139     140     141     142     143     144     145     146
     147     140     141     142     143     144     145     146     147     141
     142     143     144     145     146     147     142     143     144     143
     144     144     145     146     147     146     147     147       0     149
     150     151     155     156     157     158     159     172     178     150
     155     156     157     151     152     153     154     155     156     157
     158     159     172     178     179     180     185     186     187     152
     153     154     155     156     157     178     179     185     153     154
     155     178     154     155     178     155     178     156     157     158
     159     160     169     172     173     174     178     179     185     157
     158     159     172     178     158     159     160     161     169     170
     171     172     173     174     175     176     177     178     159     160
     169     172     173     174     160     169     172     173     174     172
     162     163     164     165     166     167     168     169     170     171
     172     173     174     163     164     165     169     170     171     172
     164     165     166     167     168     169     170     171     172     165
     166     167     168     169     166     167     168     169     167     168
     168       0     170     171     172     173     174     175     176     177
     171     172     173     174     172     173     174     173     174     175
     176     177     174     175     176     177     175     176     177     176
     177     177       0     179     180     181     185     186     187     188
     189     193     180     185     186     187     181     182     183     184
     185     186     187     188     189     193     182     183     184     185
     186     187     183     184     185     184     185     185     186     187
     188     189     190     191     192     193     194     195     196     187
     188     189     193     188     189     190     191     192     193     194
     195     196     189     190     191     192     193     194     195     196
     190     191     192     193     194     195     196     191     192     193
     192     193     193     194     195     196     195     196     196       0
     198     199     200     201     202     199     200     201     202     200
     201     202     201     202     202       0     204     205     206     207
     208     205     206     207     208     206     207     208     207     208
     208       0     210     211     212     213     214     211     212     213
     214     212     213     214     213     214     214       0     216     217
     218     219     220     217     218     219     220     218     219     220
     219     220     220       0     222     223     224     225     226     223
     224     225     226     224     225     226     225     226     226       0
     228     229     230     231     232     229     230     231     232     230
     231     232     231     232     232       0     234     235     236     237
     238     235     236     237     238     236     237     238     237     238
     238       0     240     241     242     243     244     241     242     243
     244     242     243     244     243     244     244       0     246     247
     248     249     250     247     248     249     250     248     249     250
     249     250     250       0     252     253     254     255     256     253
     254     255     256     254     255     256     255     256     256       0
     258     259     260     261     262     259     260     261     262     260
     261     262     261     262     262       0     264     265     266     267
     268     265     266     267     268     266     267     268     267     268
     268       0     270     271     272     273     274     271     272     273
     274     272     273     274     273     274     274       0     276     277
     278     279     280     277     278     279     280     278     279     280
     279     280     280       0     282     283     284     285     286     283
     284     285     286     284     285     286     285     286     286       0
     288     289     290     291     292     289     290     291     292     290
     291     292     291     292     292       0     294     295     296     297
     298     295     296     297     298     296     297     298     297     298
     298       0     300     301     302     303     304     301     302     303
     304     302     303     304     303     304     304       0     306     307
     308     309     310     307     308     309     310     308     309     310
     309     310     310       0     312     313     314     315     316     313
     314     315     316     314     315     316     315     316     316       0
     318     319     320     321     322     319     320     321     322     320
     321     322     321     322     322       0     324     325     326     327
     328     325     326     327     328     326     327     328     327     328
     328       0     330     331     332     333     334     331     332     333
     334     332     333     334     333     334     334       0     336     337
     338     339     340     337     338     339     340     338     339     340
     339     340     340       0     342     343     344     345     346     343
     344     345     346     344     345     346     345     346     346       0
     348     349     350     351     352     349     350     351     352     350
     351     352     351     352     352       0     354     355     356     357
     358     355     356     357     358     356     357     358     357     358
     358       0     360     361     362     363     364     361     362     363
     364     362     363     364     363     364     364       0     366     367
     368     369     370     367     368     369     370     368     369     370
     369     370     370       0     372     373     374     375     376     373
     374     375     376     374     375     376     375     376     376       0
     378     379     380     381     382     379     380     381     382     380
     381     382     381     382     382       0     384     385     386     387
     388     385     386     387     388     386     387     388     387     388
     388       0     390     391     392     393     394     391     392     393
     394     392     393     394     393     394     394       0     396     397
     398     399     400     397     398     399     400     398     399     400
     399     400     400       0     402     403     404     405     406     403
     404     405     406     404     405     406     405     406     406       0
     408     409     410     411     412     409     410     411     412     410
     411     412     411     412     412       0     414     415     416     417
     418     415     416     417     418     416     417     418     417     418
     418       0     420     421     422     423     424     421     422     423
     424     422     423     424     423     424     424       0     426     427
     428     429     430     427     428     429     430     428     429     430
     429     430     430       0     432     433     434     435     436     433
     434     435     436     434     435     436     435     436     436       0
     438     439     440     441     442     439     440     441     442     440
     441     442     441     442     442       0     444     445     446     447
     448     445     446     447     448     446     447     448     447     448
     448       0     450     451     452     453     454     451     452     453
     454     452     453     454     453     454     454       0     456     457
     458     459     460     457     458     459     460     458     459     460
     459     460     460       0     462     463     464     465     466     463
     464     465     466     464     465     466     465     466     466       0
     468     469     470     471     472     469     470     471     472     470
     471     472     471     472     472       0     474     475     476     477
     478     475     476     477     478     476     477     478     477     478
     478       0     480     481     482     483     484     481     482     483
     484     482     483     484     483     484     484       0     486     487
     488     489     490     487     488     489     490     488     489     490
     489     490     490       0     492     493     494     495     496     493
     494     495     496     494     495     496     495     496     496       0
     498     499     500     501     502     499     500     501     502     500
     501     502     501     502     502       0     504     505     506     507
     508     505     506     507     508     506     507     508     507     508
     508       0     510     511     512     513     514     511     512     513
     514     512     513     514     513     514     514       0     516     517
     518     519     520     517     518     519     520     518     519     520
     519     520     520       0     522     523     524     525     526     523
     524     525     526     524     525     526     525     526     526       0
     528     529     530     531     532     529     530     531     532     530
     531     532     531     532     532       0     534     535     536     537
     538     535     536     537     538     536     537     538     537     538
     538       0     540     541     542     543     544     541     542     543
     544     542     543     544     543     544     544       0     546     547
     548     549     550     547     548     549     550     548     549     550
     549     550     550       0     552     553     554     555     556     553
     554     555     556     554     555     556     555     556     556       0
     558     559     560     561     562     559     560     561     562     560
     561     562     561     562     562       0     564     565     566     567
     568     565     566     567     568     566     567     568     567     568
     568       0     570     571     572     573     574     571     572     573
     574     572     573     574     573     574     574       0     576     577
     578     579     580     577     578     579     580     578     579     580
     579     580     580       0     582     583     584     585     586     583
     584     585     586     584     585     586     585     586     586       0
     588     589     590     591     592     589     590     591     592     590
     591     592     591     592     592       0     594     595     596     597
     598     595     596     597     598     596     597     598     597     598
     598       0     600     601     602     603     604     601     602     603
     604     602     603     604     603     604     604       0     606     607
     608     609     610     607     608     609     610     608     609     610
     609     610     610       0     612     613     614     615     616     613
     614     615     616     614     615     616     615     616     616       0
     618     619     620     621     622     619     620     621     622     620
     621     622     621     622     622       0     624     625     626     627
     628     625     626     627     628     626     627     628     627     628
     628       0     630     631     632     633     634     631     632     633
     634     632     633     634     633     634     634       0     636     637
     638     639     640     637     638     639     640     638     639     640
     639     640     640       0     642     643     644     645     646     643
     644     645     646     644     645     646     645     646     646       0
     648     649     650     651     652     649     650     651     652     650
     651     652     651     652     652       0     654     655     656     657
     658     655     656     657     658     656     657     658     657     658
     658       0     660     661     662     663     664     661     662     663
     664     662     663     664     663     664     664       0     666     667
     668     669     670     667     668     669     670     668     669     670
     669     670     670       0     672     673     674     675     676     673
     674     675     676     674     675     676     675     676     676       0
     678     679     680     681     682     679     680     681     682     680
     681     682     681     682     682       0     684     685     686     687
     688     685     686     687     688     686     687     688     687     688
     688       0     690     691     692     693     694     691     692     693
     694     692     693     694     693     694     694       0     696     697
     698     699     700     697     698     699     700     698     699     700
     699     700     700       0     702     703     704     705     706     703
     704     705     706     704     705     706     705     706     706       0
     708     709     710     711     712     709     710     711     712     710
     711     712     711     712     712       0     714     715     716     717
     718     715     716     717     718     716     717     718     717     718
     718       0     720     721     722     723     724     721     722     723
     724     722     723     724     723     724     724       0     726     727
     728     729     730     727     728     729     730     728     729     730
     729     730     730       0     732     733     734     735     736     733
     734     735     736     734     735     736     735     736     736       0
     738     739     740     741     742     739     740     741     742     740
     741     742     741     742     742       0     744     745     746     747
     748     745     746     747     748     746     747     748     747     748
     748       0     750     751     752     753     754     751     752     753
     754     752     753     754     753     754     754       0     756     757
     758     759     760     757     758     759     760     758     759     760
     759     760     760       0     762     763     764     765     766     763
     764     765     766     764     765     766     765     766     766       0
     768     769     770     771     772     769     770     771     772     770
     771     772     771     772     772       0     774     775     776     777
     778     775     776     777     778     776     777     778     777     778
     778       0     780     781     782     783     784     781     782     783
     784     782     783     784     783     784     784       0     786     787
     788     789     790     787     788     789     790     788     789     790
     789     790     790       0     792     793     794     795     796     793
     794     795     796     794     795     796     795     796     796       0
     798     799     800     801     802     799     800     801     802     800
     801     802     801     802     802       0     804     805     806     807
     808     805     806     807     808     806     807     808     807     808
     808       0     810     811     812     813     814     811     812     813
     814     812     813     814     813     814     814       0     816     817
     818     819     820     817     818     819     820     818     819     820
     819     820     820       0     822     823     824     825     826     823
     824     825     826     824     825     826     825     826     826       0
     828     829     830     831     832     829     830     831     832     830
     831     832     831     832     832       0     834     835     836     837
     838     835     836     837     838     836     837     838     837     838
     838       0     840     841     842     843     844     841     842     843
     844     842     843     844     843     844     844       0     846     847
     848     849     850     847     848     849     850     848     849     850
     849     850     850       0     852     853     854     855     856     853
     854     855     856     854     855     856     855     856     856       0
     858     859     860     861     862     859     860     861     862     860
     861     862     861     862     862       0     864     865     866     867
     868     865     866     867     868     866     867     868     867     868
     868       0     870     871     872     873     874     871     872     873
     874     872     873     874     873     874     874       0     876     877
     878     879     880     877     878     879     880     878     879     880
     879     880     880       0     882     883     884     885     886     883
     884     885     886     884     885     886     885     886     886       0
     888     889     890     891     892     889     890     891     892     890
     891     892     891     892     892       0     894     895     896     897
     898     895     896     897     898     896     897     898     897     898
     898       0     900     901     902     903     904     901     902     903
     904     902     903     904     903     904     904       0     906     907
     908     909     910     907     908     909     910     908     909     910
     909     910     910       0     912     913     914     915     916     913
     914     915     916     914     915     916     915     916     916       0
     918     919     920     921     922     919     920     921     922     920
     921     922     921     922     922       0     924     925     926     927
     928     925     926     927     928     926     927     928     927     928
     928       0     930     931     932     933     934     931     932     933
     934     932     933     934     933     934     934       0     936     937
     938     939     940     937     938     939     940     938     939     940
     939     940     940       0     942     943     944     945     946     943
     944     945     946     944     945     946     945     946     946       0
     948     949     950     951     952     949     950     951     952     950
     951     952     951     952     952       0     954     955     956     957
     958     955     956     957     958     956     957     958     957     958
     958       0     960     961     962     963     964     961     962     963
     964     962     963     964     963     964     964       0     966     967
     968     969     970     967     968     969     970     968     969     970
     969     970     970       0     972     973     974     975     976     973
     974     975     976     974     975     976     975     976     976       0
     978     979     980     981     982     979     980     981     982     980
     981     982     981     982     982       0     984     985     986     987
     988     985     986     987     988     986     987     988     987     988
     988       0     990     991     992     993     994     991     992     993
     994     992     993     994     993     994     994       0     996     997
     998     999    1000     997     998     999    1000     998     999    1000
     999    1000    1000       0    1002    1003    1004    1005    1006    1003
    1004    1005    1006    1004    1005    1006    1005    1006    1006       0
    1008    1009    1010    1011    1012    1009    1010    1011    1012    1010
    1011    1012    1011    1012    1012       0    1014    1015    1016    1017
    1018    1015    1016    1017    1018    1016    1017    1018    1017    1018
    1018       0    1020    1021    1022    1023    1024    1021    1022    1023
    1024    1022    1023    1024    1023    1024    1024       0    1026    1027
    1028    1029    1030    1027    1028    1029    1030    1028    1029    1030
    1029    1030    1030       0    1032    1033    1034    1035    1036    1033
    1034    1035    1036    1034    1035    1036    1035    1036    1036       0
    1038    1039    1040    1041    1042    1039    1040    1041    1042    1040
    1041    1042    1041    1042    1042       0    1044    1045    1046    1047
    1048    1045    1046    1047    1048    1046    1047    1048    1047    1048
    1048       0    1050    1051    1052    1053    1054    1051    1052    1053
    1054    1052    1053    1054    1053    1054    1054       0    1056    1057
    1058    1059    1060    1057    1058    1059    1060    1058    1059    1060
    1059    1060    1060       0    1062    1063    1064    1065    1066    1063
    1064    1065    1066    1064    1065    1066    1065    1066    1066       0
    1068    1069    1070    1071    1072    1069    1070    1071    1072    1070
    1071    1072    1071    1072    1072       0    1074    1075    1076    1077
    1078    1075    1076    1077    1078    1076    1077    1078    1077    1078
    1078       0    1080    1081    1082    1083    1084    1081    1082    1083
    1084    1082    1083    1084    1083    1084    1084       0    1086    1087
    1088    1089    1090    1087    1088    1089    1090    1088    1089    1090
    1089    1090    1090       0    1092    1093    1094    1095    1096    1093
    1094    1095    1096    1094    1095    1096    1095    1096    1096       0
    1098    1099    1100    1101    1102    1099    1100    1101    1102    1100
    1101    1102    1101    1102    1102       0    1104    1105    1106    1107
    1108    1105    1106    1107    1108    1106    1107    1108    1107    1108
    1108       0    1110    1111    1112    1113    1114    1111    1112    1113
    1114    1112    1113    1114    1113    1114    1114       0    1116    1117
    1118    1119    1120    1117    1118    1119    1120    1118    1119    1120
    1119    1120    1120       0    1122    1123    1124    1125    1126    1123
    1124    1125    1126    1124    1125    1126    1125    1126    1126       0
    1128    1129    1130    1131    1132    1129    1130    1131    1132    1130
    1131    1132    1131    1132    1132       0    1134    1135    1136    1137
    1138    1135    1136    1137    1138    1136    1137    1138    1137    1138
    1138       0    1140    1141    1142    1143    1144    1141    1142    1143
    1144    1142    1143    1144    1143    1144    1144       0    1146    1147
    1148    1149    1150    1147    1148    1149    1150    1148    1149    1150
    1149    1150    1150       0    1152    1153    1154    1155    1156    1153
    1154    1155    1156    1154    1155    1156    1155    1156    1156       0
    1158    1159    1160    1161    1162    1159    1160    1161    1162    1160
    1161    1162    1161    1162    1162       0    1164    1165    1166    1167
    1168    1165    1166    1167    1168    1166    1167    1168    1167    1168
    1168       0    1170    1171    1172    1173    1174    1171    1172    1173
    1174    1172    1173    1174    1173    1174    1174       0    1176    1177
    1178    1179    1180    1177    1178    1179    1180    1178    1179    1180
    1179    1180    1180       0    1182    1183    1184    1185    1186    1183
    1184    1185    1186    1184    1185    1186    1185    1186    1186       0
    1188    1189    1190    1191    1192    1189    1190    1191    1192    1190
    1191    1192    1191    1192    1192       0    1194    1195    1196    1197
    1198    1195    1196    1197    1198    1196    1197    1198    1197    1198
    1198       0    1200    1201    1202    1203    1204    1201    1202    1203
    1204    1202    1203    1204    1203    1204    1204       0    1206    1207
    1208    1209    1210    1207    1208    1209    1210    1208    1209    1210
    1209    1210    1210       0    1212    1213    1214    1215    1216    1213
    1214    1215    1216    1214    1215    1216    1215    1216    1216       0
    1218    1219    1220    1221    1222    1219    1220    1221    1222    1220
    1221    1222    1221    1222    1222       0    1224    1225    1226    1227
    1228    1225    1226    1227    1228    1226    1227    1228    1227    1228
    1228       0    1230    1231    1232    1233    1234    1231    1232    1233
    1234    1232    1233    1234    1233    1234    1234       0    1236    1237
    1238    1239    1240    1237    1238    1239    1240    1238    1239    1240
    1239    1240    1240       0    1242    1243    1244    1245    1246    1243
    1244    1245    1246    1244    1245    1246    1245    1246    1246       0
    1248    1249    1250    1251    1252    1249    1250    1251    1252    1250
    1251    1252    1251    1252    1252       0    1254    1255    1256    1257
    1258    1255    1256    1257    1258    1256    1257    1258    1257    1258
    1258       0    1260    1261    1262    1263    1264    1261    1262    1263
    1264    1262    1263    1264    1263    1264    1264       0    1266    1267
    1268    1269    1270    1267    1268    1269    1270    1268    1269    1270
    1269    1270    1270       0    1272    1273    1274    1275    1276    1273
    1274    1275    1276    1274    1275    1276    1275    1276    1276       0
    1278    1279    1280    1281    1282    1279    1280    1281    1282    1280
    1281    1282    1281    1282    1282       0    1284    1285    1286    1287
    1288    1285    1286    1287    1288    1286    1287    1288    1287    1288
    1288       0    1290    1291    1292    1293    1294    1291    1292    1293
    1294    1292    1293    1294    1293    1294    1294       0    1296    1297
    1298    1299    1300    1297    1298    1299    1300    1298    1299    1300
    1299    1300    1300       0    1302    1303    1304    1305    1306    1303
    1304    1305    1306    1304    1305    1306    1305    1306    1306       0
    1308    1309    1310    1311    1312    1309    1310    1311    1312    1310
    1311    1312    1311    1312    1312       0    1314    1315    1316    1317
    1318    1315    1316    1317    1318    1316    1317    1318    1317    1318
    1318       0    1320    1321    1322    1323    1324    1321    1322    1323
    1324    1322    1323    1324    1323    1324    1324       0    1326    1327
    1328    1329    1330    1327    1328    1329    1330    1328    1329    1330
    1329    1330    1330       0    1332    1333    1334    1335    1336    1333
    1334    1335    1336    1334    1335    1336    1335    1336    1336       0
    1338    1339    1340    1341    1342    1339    1340    1341    1342    1340
    1341    1342    1341    1342    1342       0    1344    1345    1346    1347
    1348    1345    1346    1347    1348    1346    1347    1348    1347    1348
    1348       0    1350    1351    1352    1353    1354    1351    1352    1353
    1354    1352    1353    1354    1353    1354    1354       0    1356    1357
    1358    1359    1360    1357    1358    1359    1360    1358    1359    1360
    1359    1360    1360       0    1362    1363    1364    1365    1366    1363
    1364    1365    1366    1364    1365    1366    1365    1366    1366       0
    1368    1369    1370    1371    1372    1369    1370    1371    1372    1370
    1371    1372    1371    1372    1372       0    1374    1375    1376    1377
    1378    1375    1376    1377    1378    1376    1377    1378    1377    1378
    1378       0    1380    1381    1382    1383    1384    1381    1382    1383
    1384    1382    1383    1384    1383    1384    1384       0    1386    1387
    1388    1389    1390    1387    1388    1389    1390    1388    1389    1390
    1389    1390    1390       0    1392    1393    1394    1395    1396    1393
    1394    1395    1396    1394    1395    1396    1395    1396    1396       0
    1398    1399    1400    1401    1402    1399    1400    1401    1402    1400
    1401    1402    1401    1402    1402       0    1404    1405    1406    1407
    1408    1405    1406    1407    1408    1406    1407    1408    1407    1408
    1408       0    1410    1411    1412    1413    1414    1411    1412    1413
    1414    1412    1413    1414    1413    1414    1414       0    1416    1417
    1418    1419    1420    1417    1418    1419    1420    1418    1419    1420
    1419    1420    1420       0    1422    1423    1424    1425    1426    1423
    1424    1425    1426    1424    1425    1426    1425    1426    1426       0
    1428    1429    1430    1431    1432    1429    1430    1431    1432    1430
    1431    1432    1431    1432    1432       0    1434    1435    1436    1437
    1438    1435    1436    1437    1438    1436    1437    1438    1437    1438
    1438       0    1440    1441    1442    1443    1444    1441    1442    1443
    1444    1442    1443    1444    1443    1444    1444       0    1446    1447
    1448    1449    1450    1447    1448    1449    1450    1448    1449    1450
    1449    1450    1450       0    1452    1453    1454    1455    1456    1453
    1454    1455    1456    1454    1455    1456    1455    1456    1456       0
    1458    1459    1460    1461    1462    1459    1460    1461    1462    1460
    1461    1462    1461    1462    1462       0    1464    1465    1466    1467
    1468    1465    1466    1467    1468    1466    1467    1468    1467    1468
    1468       0    1470    1471    1472    1473    1474    1471    1472    1473
    1474    1472    1473    1474    1473    1474    1474       0    1476    1477
    1478    1479    1480    1477    1478    1479    1480    1478    1479    1480
    1479    1480    1480       0    1482    1483    1484    1485    1486    1483
    1484    1485    1486    1484    1485    1486    1485    1486    1486       0
    1488    1489    1490    1491    1492    1489    1490    1491    1492    1490
    1491    1492    1491    1492    1492       0    1494    1495    1496    1497
    1498    1495    1496    1497    1498    1496    1497    1498    1497    1498
    1498       0    1500    1501    1502    1503    1504    1501    1502    1503
    1504    1502    1503    1504    1503    1504    1504       0    1506    1507
    1508    1509    1510    1507    1508    1509    1510    1508    1509    1510
    1509    1510    1510       0    1512    1513    1514    1515    1516    1513
    1514    1515    1516    1514    1515    1516    1515    1516    1516       0
    1518    1519    1520    1521    1522    1519    1520    1521    1522    1520
    1521    1522    1521    1522    1522       0    1524    1525    1526    1527
    1528    1525    1526    1527    1528    1526    1527    1528    1527    1528
    1528       0    1530    1531    1532    1533    1534    1531    1532    1533
    1534    1532    1533    1534    1533    1534    1534       0    1536    1537
    1538    1539    1540    1537    1538    1539    1540    1538    1539    1540
    1539    1540    1540       0    1542    1543    1544    1545    1546    1543
    1544    1545    1546    1544    1545    1546    1545    1546    1546       0
    1548    1549    1550    1551    1552    1549    1550    1551    1552    1550
    1551    1552    1551    1552    1552       0    1554    1555    1556    1557
    1558    1555    1556    1557    1558    1556    1557    1558    1557    1558
    1558       0    1560    1561    1562    1563    1564    1561    1562    1563
    1564    1562    1563    1564    1563    1564    1564       0    1566    1567
    1568    1569    1570    1567    1568    1569    1570    1568    1569    1570
    1569    1570    1570       0    1572    1573    1574    1575    1576    1573
    1574    1575    1576    1574    1575    1576    1575    1576    1576       0
    1578    1579    1580    1581    1582    1579    1580    1581    1582    1580
    1581    1582    1581    1582    1582       0    1584    1585    1586    1587
    1588    1585    1586    1587    1588    1586    1587    1588    1587    1588
    1588       0    1590    1591    1592    1593    1594    1591    1592    1593
    1594    1592    1593    1594    1593    1594    1594       0    1596    1597
    1598    1599    1600    1597    1598    1599    1600    1598    1599    1600
    1599    1600    1600       0    1602    1603    1604    1605    1606    1603
    1604    1605    1606    1604    1605    1606    1605    1606    1606       0
    1608    1609    1610    1611    1612    1609    1610    1611    1612    1610
    1611    1612    1611    1612    1612       0    1614    1615    1616    1617
    1618    1615    1616    1617    1618    1616    1617    1618    1617    1618
    1618       0    1620    1621    1622    1623    1624    1621    1622    1623
    1624    1622    1623    1624    1623    1624    1624       0    1626    1627
    1628    1629    1630    1627    1628    1629    1630    1628    1629    1630
    1629    1630    1630       0    1632    1633    1634    1635    1636    1633
    1634    1635    1636    1634    1635    1636    1635    1636    1636       0
    1638    1639    1640    1641    1642    1639    1640    1641    1642    1640
    1641    1642    1641    1642    1642       0    1644    1645    1646    1647
    1648    1645    1646    1647    1648    1646    1647    1648    1647    1648
    1648       0    1650    1651    1652    1653    1654    1651    1652    1653
    1654    1652    1653    1654    1653    1654    1654       0    1656    1657
    1658    1659    1660    1657    1658    1659    1660    1658    1659    1660
    1659    1660    1660       0    1662    1663    1664    1665    1666    1663
    1664    1665    1666    1664    1665    1666    1665    1666    1666       0
    1668    1669    1670    1671    1672    1669    1670    1671    1672    1670
    1671    1672    1671    1672    1672       0    1674    1675    1676    1677
    1678    1675    1676    1677    1678    1676    1677    1678    1677    1678
    1678       0    1680    1681    1682    1683    1684    1681    1682    1683
    1684    1682    1683    1684    1683    1684    1684       0    1686    1687
    1688    1689    1690    1687    1688    1689    1690    1688    1689    1690
    1689    1690    1690       0    1692    1693    1694    1695    1696    1693
    1694    1695    1696    1694    1695    1696    1695    1696    1696       0
    1698    1699    1700    1701    1702    1699    1700    1701    1702    1700
    1701    1702    1701    1702    1702       0    1704    1705    1706    1707
    1708    1705    1706    1707    1708    1706    1707    1708    1707    1708
    1708       0    1710    1711    1712    1713    1714    1711    1712    1713
    1714    1712    1713    1714    1713    1714    1714       0    1716    1717
    1718    1719    1720    1717    1718    1719    1720    1718    1719    1720
    1719    1720    1720       0    1722    1723    1724    1725    1726    1723
    1724    1725    1726    1724    1725    1726    1725    1726    1726       0
    1728    1729    1730    1731    1732    1729    1730    1731    1732    1730
    1731    1732    1731    1732    1732       0    1734    1735    1736    1737
    1738    1735    1736    1737    1738    1736    1737    1738    1737    1738
    1738       0    1740    1741    1742    1743    1744    1741    1742    1743
    1744    1742    1743    1744    1743    1744    1744       0    1746    1747
    1748    1749    1750    1747    1748    1749    1750    1748    1749    1750
    1749    1750    1750       0    1752    1753    1754    1755    1756    1753
    1754    1755    1756    1754    1755    1756    1755    1756    1756       0
    1758    1759    1760    1761    1762    1759    1760    1761    1762    1760
    1761    1762    1761    1762    1762       0    1764    1765    1766    1767
    1768    1765    1766    1767    1768    1766    1767    1768    1767    1768
    1768       0    1770    1771    1772    1773    1774    1771    1772    1773
    1774    1772    1773    1774    1773    1774    1774       0    1776    1777
    1778    1779    1780    1777    1778    1779    1780    1778    1779    1780
    1779    1780    1780       0    1782    1783    1784    1785    1786    1783
    1784    1785    1786    1784    1785    1786    1785    1786    1786       0
    1788    1789    1790    1791    1792    1789    1790    1791    1792    1790
    1791    1792    1791    1792    1792       0    1794    1795    1796    1797
    1798    1795    1796    1797    1798    1796    1797    1798    1797    1798
    1798       0    1800    1801    1802    1803    1804    1801    1802    1803
    1804    1802    1803    1804    1803    1804    1804       0    1806    1807
    1808    1809    1810    1807    1808    1809    1810    1808    1809    1810
    1809    1810    1810       0    1812    1813    1814    1815    1816    1813
    1814    1815    1816    1814    1815    1816    1815    1816    1816       0
    1818    1819    1820    1821    1822    1819    1820    1821    1822    1820
    1821    1822    1821    1822    1822       0    1824    1825    1826    1827
    1828    1825    1826    1827    1828    1826    1827    1828    1827    1828
    1828       0    1830    1831    1832    1833    1834    1831    1832    1833
    1834    1832    1833    1834    1833    1834    1834       0    1836    1837
    1838    1839    1840    1837    1838    1839    1840    1838    1839    1840
    1839    1840    1840       0    1842    1843    1844    1845    1846    1843
    1844    1845    1846    1844    1845    1846    1845    1846    1846       0
    1848    1849    1850    1851    1852    1849    1850    1851    1852    1850
    1851    1852    1851    1852    1852       0    1854    1855    1856    1857
    1858    1855    1856    1857    1858    1856    1857    1858    1857    1858
    1858       0    1860    1861    1862    1863    1864    1861    1862    1863
    1864    1862    1863    1864    1863    1864    1864       0    1866    1867
    1868    1869    1870    1867    1868    1869    1870    1868    1869    1870
    1869    1870    1870       0    1872    1873    1874    1875    1876    1873
    1874    1875    1876    1874    1875    1876    1875    1876    1876       0
    1878    1879    1880    1881    1882    1879    1880    1881    1882    1880
    1881    1882    1881    1882    1882       0    1884    1885    1886    1887
    1888    1885    1886    1887    1888    1886    1887    1888    1887    1888
    1888       0    1890    1891    1892    1893    1894    1891    1892    1893
    1894    1892    1893    1894    1893    1894    1894       0    1896    1897
    1898    1899    1900    1897    1898    1899    1900    1898    1899    1900
    1899    1900    1900       0    1902    1903    1904    1905    1906    1903
    1904    1905    1906    1904    1905    1906    1905    1906    1906       0
    1908    1909    1910    1911    1912    1909    1910    1911    1912    1910
    1911    1912    1911    1912    1912       0    1914    1915    1916    1917
    1918    1915    1916    1917    1918    1916    1917    1918    1917    1918
    1918       0    1920    1921    1922    1923    1924    1921    1922    1923
    1924    1922    1923    1924    1923    1924    1924       0    1926    1927
    1928    1929    1930    1927    1928    1929    1930    1928    1929    1930
    1929    1930    1930       0    1932    1933    1934    1935    1936    1933
    1934    1935    1936    1934    1935    1936    1935    1936    1936       0
    1938    1939    1940    1941    1942    1939    1940    1941    1942    1940
    1941    1942    1941    1942    1942       0    1944    1945    1946    1947
    1948    1945    1946    1947    1948    1946    1947    1948    1947    1948
    1948       0    1950    1951    1952    1953    1954    1951    1952    1953
    1954    1952    1953    1954    1953    1954    1954       0    1956    1957
    1958    1959    1960    1957    1958    1959    1960    1958    1959    1960
    1959    1960    1960       0    1962    1963    1964    1965    1966    1963
    1964    1965    1966    1964    1965    1966    1965    1966    1966       0
    1968    1969    1970    1971    1972    1969    1970    1971    1972    1970
    1971    1972    1971    1972    1972       0    1974    1975    1976    1977
    1978    1975    1976    1977    1978    1976    1977    1978    1977    1978
    1978       0    1980    1981    1982    1983    1984    1981    1982    1983
    1984    1982    1983    1984    1983    1984    1984       0    1986    1987
    1988    1989    1990    1987    1988    1989    1990    1988    1989    1990
    1989    1990    1990       0    1992    1993    1994    1995    1996    1993
    1994    1995    1996    1994    1995    1996    1995    1996    1996       0
    1998    1999    2000    2001    2002    1999    2000    2001    2002    2000
    2001    2002    2001    2002    2002       0    2004    2005    2006    2007
    2008    2005    2006    2007    2008    2006    2007    2008    2007    2008
    2008       0    2010    2011    2012    2013    2014    2011    2012    2013
    2014    2012    2013    2014    2013    2014    2014       0    2016    2017
    2018    2019    2020    2017    2018    2019    2020    2018    2019    2020
    2019    2020    2020       0    2022    2023    2024    2025    2026    2023
    2024    2025    2026    2024    2025    2026    2025    2026    2026       0
    2028    2029    2030    2031    2032    2029    2030    2031    2032    2030
    2031    2032    2031    2032    2032       0    2034    2035    2036    2037
    2038    2035    2036    2037    2038    2036    2037    2038    2037    2038
    2038       0    2040    2041    2042    2043    2044    2041    2042    2043
    2044    2042    2043    2044    2043    2044    2044       0    2046    2047
    2048    2049    2050    2047    2048    2049    2050    2048    2049    2050
    2049    2050    2050       0    2052    2053    2054    2055    2056    2053
    2054    2055    2056    2054    2055    2056    2055    2056    2056       0
    2058    2059    2060    2061    2062    2059    2060    2061    2062    2060
    2061    2062    2061    2062    2062       0    2064    2065    2066    2067
    2068    2065    2066    2067    2068    2066    2067    2068    2067    2068
    2068       0    2070    2071    2072    2073    2074    2071    2072    2073
    2074    2072    2073    2074    2073    2074    2074       0    2076    2077
    2078    2079    2080    2077    2078    2079    2080    2078    2079    2080
    2079    2080    2080       0    2082    2083    2084    2085    2086    2083
    2084    2085    2086    2084    2085    2086    2085    2086    2086       0
    2088    2089    2090    2091    2092    2089    2090    2091    2092    2090
    2091    2092    2091    2092    2092       0    2094    2095    2096    2097
    2098    2095    2096    2097    2098    2096    2097    2098    2097    2098
    2098       0    2100    2101    2102    2103    2104    2101    2102    2103
    2104    2102    2103    2104    2103    2104    2104       0    2106    2107
    2108    2109    2110    2107    2108    2109    2110    2108    2109    2110
    2109    2110    2110       0    2112    2113    2114    2115    2116    2113
    2114    2115    2116    2114    2115    2116    2115    2116    2116       0
    2118    2119    2120    2121    2122    2119    2120    2121    2122    2120
    2121    2122    2121    2122    2122       0    2124    2125    2126    2127
    2128    2125    2126    2127    2128    2126    2127    2128    2127    2128
    2128       0    2130    2131    2132    2133    2134    2131    2132    2133
    2134    2132    2133    2134    2133    2134    2134       0    2136    2137
    2138    2139    2140    2137    2138    2139    2140    2138    2139    2140
    2139    2140    2140       0    2142    2143    2144    2145    2146    2143
    2144    2145    2146    2144    2145    2146    2145    2146    2146       0
    2148    2149    2150    2151    2152    2149    2150    2151    2152    2150
    2151    2152    2151    2152    2152       0    2154    2155    2156    2157
    2158    2155    2156    2157    2158    2156    2157    2158    2157    2158
    2158       0    2160    2161    2162    2163    2164    2161    2162    2163
    2164    2162    2163    2164    2163    2164    2164       0    2166    2167
    2168    2169    2170    2167    2168    2169    2170    2168    2169    2170
    2169    2170    2170       0    2172    2173    2174    2175    2176    2173
    2174    2175    2176    2174    2175    2176    2175    2176    2176       0
    2178    2179    2180    2181    2182    2179    2180    2181    2182    2180
    2181    2182    2181    2182    2182       0    2184    2185    2186    2187
    2188    2185    2186    2187    2188    2186    2187    2188    2187    2188
    2188       0    2190    2191    2192    2193    2194    2191    2192    2193
    2194    2192    2193    2194    2193    2194    2194       0    2196    2197
    2198    2199    2200    2197    2198    2199    2200    2198    2199    2200
    2199    2200    2200       0    2202    2203    2204    2205    2206    2203
    2204    2205    2206    2204    2205    2206    2205    2206    2206       0
    2208    2209    2210    2211    2212    2209    2210    2211    2212    2210
    2211    2212    2211    2212    2212       0    2214    2215    2216    2217
    2218    2215    2216    2217    2218    2216    2217    2218    2217    2218
    2218       0    2220    2221    2222    2223    2224    2221    2222    2223
    2224    2222    2223    2224    2223    2224    2224       0    2226    2227
    2228    2229    2230    2227    2228    2229    2230    2228    2229    2230
    2229    2230    2230       0    2232    2233    2234    2235    2236    2233
    2234    2235    2236    2234    2235    2236    2235    2236    2236       0
    2238    2239    2240    2241    2242    2239    2240    2241    2242    2240
    2241    2242    2241    2242    2242       0    2244    2245    2246    2247
    2248    2245    2246    2247    2248    2246    2247    2248    2247    2248
    2248       0    2250    2251    2252    2253    2254    2251    2252    2253
    2254    2252    2253    2254    2253    2254    2254       0    2256    2257
    2258    2259    2260    2257    2258    2259    2260    2258    2259    2260
    2259    2260    2260       0    2262    2263    2264    2265    2266    2263
    2264    2265    2266    2264    2265    2266    2265    2266    2266       0
    2268    2269    2270    2271    2272    2269    2270    2271    2272    2270
    2271    2272    2271    2272    2272       0    2274    2275    2276    2277
    2278    2275    2276    2277    2278    2276    2277    2278    2277    2278
    2278       0    2280    2281    2282    2283    2284    2281    2282    2283
    2284    2282    2283    2284    2283    2284    2284       0    2286    2287
    2288    2289    2290    2287    2288    2289    2290    2288    2289    2290
    2289    2290    2290       0    2292    2293    2294    2295    2296    2293
    2294    2295    2296    2294    2295    2296    2295    2296    2296       0
    2298    2299    2300    2301    2302    2299    2300    2301    2302    2300
    2301    2302    2301    2302    2302       0    2304    2305    2306    2307
    2308    2305    2306    2307    2308    2306    2307    2308    2307    2308
    2308       0    2310    2311    2312    2313    2314    2311    2312    2313
    2314    2312    2313    2314    2313    2314    2314       0    2316    2317
    2318    2319    2320    2317    2318    2319    2320    2318    2319    2320
    2319    2320    2320       0    2322    2323    2324    2325    2326    2323
    2324    2325    2326    2324    2325    2326    2325    2326    2326       0
    2328    2329    2330    2331    2332    2329    2330    2331    2332    2330
    2331    2332    2331    2332    2332       0    2334    2335    2336    2337
    2338    2335    2336    2337    2338    2336    2337    2338    2337    2338
    2338       0    2340    2341    2342    2343    2344    2341    2342    2343
    2344    2342    2343    2344    2343    2344    2344       0    2346    2347
    2348    2349    2350    2347    2348    2349    2350    2348    2349    2350
    2349    2350    2350       0    2352    2353    2354    2355    2356    2353
    2354    2355    2356    2354    2355    2356    2355    2356    2356       0
    2358    2359    2360    2361    2362    2359    2360    2361    2362    2360
    2361    2362    2361    2362    2362       0    2364    2365    2366    2367
    2368    2365    2366    2367    2368    2366    2367    2368    2367    2368
    2368       0    2370    2371    2372    2373    2374    2371    2372    2373
    2374    2372    2373    2374    2373    2374    2374       0    2376    2377
    2378    2379    2380    2377    2378    2379    2380    2378    2379    2380
    2379    2380    2380       0    2382    2383    2384    2385    2386    2383
    2384    2385    2386    2384    2385    2386    2385    2386    2386       0
    2388    2389    2390    2391    2392    2389    2390    2391    2392    2390
    2391    2392    2391    2392    2392       0    2394    2395    2396    2397
    2398    2395    2396    2397    2398    2396    2397    2398    2397    2398
    2398       0    2400    2401    2402    2403    2404    2401    2402    2403
    2404    2402    2403    2404    2403    2404    2404       0    2406    2407
    2408    2409    2410    2407    2408    2409    2410    2408    2409    2410
    2409    2410    2410       0    2412    2413    2414    2415    2416    2413
    2414    2415    2416    2414    2415    2416    2415    2416    2416       0
    2418    2419    2420    2421    2422    2419    2420    2421    2422    2420
    2421    2422    2421    2422    2422       0    2424    2425    2426    2427
    2428    2425    2426    2427    2428    2426    2427    2428    2427    2428
    2428       0    2430    2431    2432    2433    2434    2431    2432    2433
    2434    2432    2433    2434    2433    2434    2434       0    2436    2437
    2438    2439    2440    2437    2438    2439    2440    2438    2439    2440
    2439    2440    2440       0    2442    2443    2444    2445    2446    2443
    2444    2445    2446    2444    2445    2446    2445    2446    2446       0
    2448    2449    2450    2451    2452    2449    2450    2451    2452    2450
    2451    2452    2451    2452    2452       0    2454    2455    2456    2457
    2458    2455    2456    2457    2458    2456    2457    2458    2457    2458
    2458       0    2460    2461    2462    2463    2464    2461    2462    2463
    2464    2462    2463    2464    2463    2464    2464       0    2466    2467
    2468    2469    2470    2467    2468    2469    2470    2468    2469    2470
    2469    2470    2470       0    2472    2473    2474    2475    2476    2473
    2474    2475    2476    2474    2475    2476    2475    2476    2476       0
    2478    2479    2480    2481    2482    2479    2480    2481    2482    2480
    2481    2482    2481    2482    2482       0    2484    2485    2486    2487
    2488    2485    2486    2487    2488    2486    2487    2488    2487    2488
    2488       0    2490    2491    2492    2493    2494    2491    2492    2493
    2494    2492    2493    2494    2493    2494    2494       0    2496    2497
    2498    2499    2500    2497    2498    2499    2500    2498    2499    2500
    2499    2500    2500       0    2502    2503    2504    2505    2506    2503
    2504    2505    2506    2504    2505    2506    2505    2506    2506       0
    2508    2509    2510    2511    2512    2509    2510    2511    2512    2510
    2511    2512    2511    2512    2512       0    2514    2515    2516    2517
    2518    2515    2516    2517    2518    2516    2517    2518    2517    2518
    2518       0    2520    2521    2522    2523    2524    2521    2522    2523
    2524    2522    2523    2524    2523    2524    2524       0    2526    2527
    2528    2529    2530    2527    2528    2529    2530    2528    2529    2530
    2529    2530    2530       0    2532    2533    2534    2535    2536    2533
    2534    2535    2536    2534    2535    2536    2535    2536    2536       0
    2538    2539    2540    2541    2542    2539    2540    2541    2542    2540
    2541    2542    2541    2542    2542       0    2544    2545    2546    2547
    2548    2545    2546    2547    2548    2546    2547    2548    2547    2548
    2548       0    2550    2551    2552    2553    2554    2551    2552    2553
    2554    2552    2553    2554    2553    2554    2554       0    2556    2557
    2558    2559    2560    2557    2558    2559    2560    2558    2559    2560
    2559    2560    2560       0    2562    2563    2564    2565    2566    2563
    2564    2565    2566    2564    2565    2566    2565    2566    2566       0
    2568    2569    2570    2571    2572    2569    2570    2571    2572    2570
    2571    2572    2571    2572    2572       0    2574    2575    2576    2577
    2578    2575    2576    2577    2578    2576    2577    2578    2577    2578
    2578       0    2580    2581    2582    2583    2584    2581    2582    2583
    2584    2582    2583    2584    2583    2584    2584       0    2586    2587
    2588    2589    2590    2587    2588    2589    2590    2588    2589    2590
    2589    2590    2590       0    2592    2593    2594    2595    2596    2593
    2594    2595    2596    2594    2595    2596    2595    2596    2596       0
    2598    2599    2600    2601    2602    2599    2600    2601    2602    2600
    2601    2602    2601    2602    2602       0    2604    2605    2606    2607
    2608    2605    2606    2607    2608    2606    2607    2608    2607    2608
    2608       0    2610    2611    2612    2613    2614    2611    2612    2613
    2614    2612    2613    2614    2613    2614    2614       0    2616    2617
    2618    2619    2620    2617    2618    2619    2620    2618    2619    2620
    2619    2620    2620       0    2622    2623    2624    2625    2626    2623
    2624    2625    2626    2624    2625    2626    2625    2626    2626       0
    2628    2629    2630    2631    2632    2629    2630    2631    2632    2630
    2631    2632    2631    2632    2632       0    2634    2635    2636    2637
    2638    2635    2636    2637    2638    2636    2637    2638    2637    2638
    2638       0    2640    2641    2642    2643    2644    2641    2642    2643
    2644    2642    2643    2644    2643    2644    2644       0    2646    2647
    2648    2649    2650    2647    2648    2649    2650    2648    2649    2650
    2649    2650    2650       0    2652    2653    2654    2655    2656    2653
    2654    2655    2656    2654    2655    2656    2655    2656    2656       0
    2658    2659    2660    2661    2662    2659    2660    2661    2662    2660
    2661    2662    2661    2662    2662       0    2664    2665    2666    2667
    2668    2665    2666    2667    2668    2666    2667    2668    2667    2668
    2668       0    2670    2671    2672    2673    2674    2671    2672    2673
    2674    2672    2673    2674    2673    2674    2674       0    2676    2677
    2678    2679    2680    2677    2678    2679    2680    2678    2679    2680
    2679    2680    2680       0    2682    2683    2684    2685    2686    2683
    2684    2685    2686    2684    2685    2686    2685    2686    2686       0
    2688    2689    2690    2691    2692    2689    2690    2691    2692    2690
    2691    2692    2691    2692    2692       0    2694    2695    2696    2697
    2698    2695    2696    2697    2698    2696    2697    2698    2697    2698
    2698       0    2700    2701    2702    2703    2704    2701    2702    2703
    2704    2702    2703    2704    2703    2704    2704       0    2706    2707
    2708    2709    2710    2707    2708    2709    2710    2708    2709    2710
    2709    2710    2710       0    2712    2713    2714    2715    2716    2713
    2714    2715    2716    2714    2715    2716    2715    2716    2716       0
    2718    2719    2720    2721    2722    2719    2720    2721    2722    2720
    2721    2722    2721    2722    2722       0    2724    2725    2726    2727
    2728    2725    2726    2727    2728    2726    2727    2728    2727    2728
    2728       0    2730    2731    2732    2733    2734    2731    2732    2733
    2734    2732    2733    2734    2733    2734    2734       0    2736    2737
    2738    2739    2740    2737    2738    2739    2740    2738    2739    2740
    2739    2740    2740       0    2742    2743    2744    2745    2746    2743
    2744    2745    2746    2744    2745    2746    2745    2746    2746       0
    2748    2749    2750    2751    2752    2749    2750    2751    2752    2750
    2751    2752    2751    2752    2752       0    2754    2755    2756    2757
    2758    2755    2756    2757    2758    2756    2757    2758    2757    2758
    2758       0    2760    2761    2762    2763    2764    2761    2762    2763
    2764    2762    2763    2764    2763    2764    2764       0    2766    2767
    2768    2769    2770    2767    2768    2769    2770    2768    2769    2770
    2769    2770    2770       0    2772    2773    2774    2775    2776    2773
    2774    2775    2776    2774    2775    2776    2775    2776    2776       0
    2778    2779    2780    2781    2782    2779    2780    2781    2782    2780
    2781    2782    2781    2782    2782       0    2784    2785    2786    2787
    2788    2785    2786    2787    2788    2786    2787    2788    2787    2788
    2788       0    2790    2791    2792    2793    2794    2791    2792    2793
    2794    2792    2793    2794    2793    2794    2794       0    2796    2797
    2798    2799    2800    2797    2798    2799    2800    2798    2799    2800
    2799    2800    2800       0    2802    2803    2804    2805    2806    2803
    2804    2805    2806    2804    2805    2806    2805    2806    2806       0
    2808    2809    2810    2811    2812    2809    2810    2811    2812    2810
    2811    2812    2811    2812    2812       0    2814    2815    2816    2817
    2818    2815    2816    2817    2818    2816    2817    2818    2817    2818
    2818       0    2820    2821    2822    2823    2824    2821    2822    2823
    2824    2822    2823    2824    2823    2824    2824       0    2826    2827
    2828    2829    2830    2827    2828    2829    2830    2828    2829    2830
    2829    2830    2830       0    2832    2833    2834    2835    2836    2833
    2834    2835    2836    2834    2835    2836    2835    2836    2836       0
    2838    2839    2840    2841    2842    2839    2840    2841    2842    2840
    2841    2842    2841    2842    2842       0    2844    2845    2846    2847
    2848    2845    2846    2847    2848    2846    2847    2848    2847    2848
    2848       0    2850    2851    2852    2853    2854    2851    2852    2853
    2854    2852    2853    2854    2853    2854    2854       0    2856    2857
    2858    2859    2860    2857    2858    2859    2860    2858    2859    2860
    2859    2860    2860       0    2862    2863    2864    2865    2866    2863
    2864    2865    2866    2864    2865    2866    2865    2866    2866       0
    2868    2869    2870    2871    2872    2869    2870    2871    2872    2870
    2871    2872    2871    2872    2872       0    2874    2875    2876    2877
    2878    2875    2876    2877    2878    2876    2877    2878    2877    2878
    2878       0    2880    2881    2882    2883    2884    2881    2882    2883
    2884    2882    2883    2884    2883    2884    2884       0    2886    2887
    2888    2889    2890    2887    2888    2889    2890    2888    2889    2890
    2889    2890    2890       0    2892    2893    2894    2895    2896    2893
    2894    2895    2896    2894    2895    2896    2895    2896    2896       0
    2898    2899    2900    2901    2902    2899    2900    2901    2902    2900
    2901    2902    2901    2902    2902       0    2904    2905    2906    2907
    2908    2905    2906    2907    2908    2906    2907    2908    2907    2908
    2908       0    2910    2911    2912    2913    2914    2911    2912    2913
    2914    2912    2913    2914    2913    2914    2914       0    2916    2917
    2918    2919    2920    2917    2918    2919    2920    2918    2919    2920
    2919    2920    2920       0    2922    2923    2924    2925    2926    2923
    2924    2925    2926    2924    2925    2926    2925    2926    2926       0
    2928    2929    2930    2931    2932    2929    2930    2931    2932    2930
    2931    2932    2931    2932    2932       0    2934    2935    2936    2937
    2938    2935    2936    2937    2938    2936    2937    2938    2937    2938
    2938       0    2940    2941    2942    2943    2944    2941    2942    2943
    2944    2942    2943    2944    2943    2944    2944       0    2946    2947
    2948    2949    2950    2947    2948    2949    2950    2948    2949    2950
    2949    2950    2950       0    2952    2953    2954    2955    2956    2953
    2954    2955    2956    2954    2955    2956    2955    2956    2956       0
    2958    2959    2960    2961    2962    2959    2960    2961    2962    2960
    2961    2962    2961    2962    2962       0    2964    2965    2966    2967
    2968    2965    2966    2967    2968    2966    2967    2968    2967    2968
    2968       0    2970    2971    2972    2973    2974    2971    2972    2973
    2974    2972    2973    2974    2973    2974    2974       0    2976    2977
    2978    2979    2980    2977    2978    2979    2980    2978    2979    2980
    2979    2980    2980       0    2982    2983    2984    2985    2986    2983
    2984    2985    2986    2984    2985    2986    2985    2986    2986       0
    2988    2989    2990    2991    2992    2989    2990    2991    2992    2990
    2991    2992    2991    2992    2992       0    2994    2995    2996    2997
    2998    2995    2996    2997    2998    2996    2997    2998    2997    2998
    2998       0    3000    3001    3002    3003    3004    3001    3002    3003
    3004    3002    3003    3004    3003    3004    3004       0    3006    3007
    3008    3009    3010    3007    3008    3009    3010    3008    3009    3010
    3009    3010    3010       0    3012    3013    3014    3015    3016    3013
    3014    3015    3016    3014    3015    3016    3015    3016    3016       0
    3018    3019    3020    3021    3022    3019    3020    3021    3022    3020
    3021    3022    3021    3022    3022       0    3024    3025    3026    3027
    3028    3025    3026    3027    3028    3026    3027    3028    3027    3028
    3028       0    3030    3031    3032    3033    3034    3031    3032    3033
    3034    3032    3033    3034    3033    3034    3034       0    3036    3037
    3038    3039    3040    3037    3038    3039    3040    3038    3039    3040
    3039    3040    3040       0    3042    3043    3044    3045    3046    3043
    3044    3045    3046    3044    3045    3046    3045    3046    3046       0
    3048    3049    3050    3051    3052    3049    3050    3051    3052    3050
    3051    3052    3051    3052    3052       0    3054    3055    3056    3057
    3058    3055    3056    3057    3058    3056    3057    3058    3057    3058
    3058       0    3060    3061    3062    3063    3064    3061    3062    3063
    3064    3062    3063    3064    3063    3064    3064       0    3066    3067
    3068    3069    3070    3067    3068    3069    3070    3068    3069    3070
    3069    3070    3070       0    3072    3073    3074    3075    3076    3073
    3074    3075    3076    3074    3075    3076    3075    3076    3076       0
    3078    3079    3080    3081    3082    3079    3080    3081    3082    3080
    3081    3082    3081    3082    3082       0    3084    3085    3086    3087
    3088    3085    3086    3087    3088    3086    3087    3088    3087    3088
    3088       0    3090    3091    3092    3093    3094    3091    3092    3093
    3094    3092    3093    3094    3093    3094    3094       0    3096    3097
    3098    3099    3100    3097    3098    3099    3100    3098    3099    3100
    3099    3100    3100       0    3102    3103    3104    3105    3106    3103
    3104    3105    3106    3104    3105    3106    3105    3106    3106       0
    3108    3109    3110    3111    3112    3109    3110    3111    3112    3110
    3111    3112    3111    3112    3112       0    3114    3115    3116    3117
    3118    3115    3116    3117    3118    3116    3117    3118    3117    3118
    3118       0    3120    3121    3122    3123    3124    3121    3122    3123
    3124    3122    3123    3124    3123    3124    3124       0    3126    3127
    3128    3129    3130    3127    3128    3129    3130    3128    3129    3130
    3129    3130    3130       0    3132    3133    3134    3135    3136    3133
    3134    3135    3136    3134    3135    3136    3135    3136    3136       0
    3138    3139    3140    3141    3142    3139    3140    3141    3142    3140
    3141    3142    3141    3142    3142       0    3144    3145    3146    3147
    3148    3145    3146    3147    3148    3146    3147    3148    3147    3148
    3148       0    3150    3151    3152    3153    3154    3151    3152    3153
    3154    3152    3153    3154    3153    3154    3154       0    3156    3157
    3158    3159    3160    3157    3158    3159    3160    3158    3159    3160
    3159    3160    3160       0    3162    3163    3164    3165    3166    3163
    3164    3165    3166    3164    3165    3166    3165    3166    3166       0
    3168    3169    3170    3171    3172    3169    3170    3171    3172    3170
    3171    3172    3171    3172    3172       0    3174    3175    3176    3177
    3178    3175    3176    3177    3178    3176    3177    3178    3177    3178
    3178       0    3180    3181    3182    3183    3184    3181    3182    3183
    3184    3182    3183    3184    3183    3184    3184       0    3186    3187
    3188    3189    3190    3187    3188    3189    3190    3188    3189    3190
    3189    3190    3190       0    3192    3193    3194    3195    3196    3193
    3194    3195    3196    3194    3195    3196    3195    3196    3196       0
    3198    3199    3200    3201    3202    3199    3200    3201    3202    3200
    3201    3202    3201    3202    3202       0    3204    3205    3206    3207
    3208    3205    3206    3207    3208    3206    3207    3208    3207    3208
    3208       0    3210    3211    3212    3213    3214    3211    3212    3213
    3214    3212    3213    3214    3213    3214    3214       0    3216    3217
    3218    3219    3220    3217    3218    3219    3220    3218    3219    3220
    3219    3220    3220       0    3222    3223    3224    3225    3226    3223
    3224    3225    3226    3224    3225    3226    3225    3226    3226       0
    3228    3229    3230    3231    3232    3229    3230    3231    3232    3230
    3231    3232    3231    3232    3232       0    3234    3235    3236    3237
    3238    3235    3236    3237    3238    3236    3237    3238    3237    3238
    3238       0    3240    3241    3242    3243    3244    3241    3242    3243
    3244    3242    3243    3244    3243    3244    3244       0    3246    3247
    3248    3249    3250    3247    3248    3249    3250    3248    3249    3250
    3249    3250    3250       0    3252    3253    3254    3255    3256    3253
    3254    3255    3256    3254    3255    3256    3255    3256    3256       0
    3258    3259    3260    3261    3262    3259    3260    3261    3262    3260
    3261    3262    3261    3262    3262       0    3264    3265    3266    3267
    3268    3265    3266    3267    3268    3266    3267    3268    3267    3268
    3268       0    3270    3271    3272    3273    3274    3271    3272    3273
    3274    3272    3273    3274    3273    3274    3274       0    3276    3277
    3278    3279    3280    3277    3278    3279    3280    3278    3279    3280
    3279    3280    3280       0    3282    3283    3284    3285    3286    3283
    3284    3285    3286    3284    3285    3286    3285    3286    3286       0
    3288    3289    3290    3291    3292    3289    3290    3291    3292    3290
    3291    3292    3291    3292    3292       0    3294    3295    3296    3297
    3298    3295    3296    3297    3298    3296    3297    3298    3297    3298
    3298       0    3300    3301    3302    3303    3304    3301    3302    3303
    3304    3302    3303    3304    3303    3304    3304       0    3306    3307
    3308    3309    3310    3307    3308    3309    3310    3308    3309    3310
    3309    3310    3310       0    3312    3313    3314    3315    3316    3313
    3314    3315    3316    3314    3315    3316    3315    3316    3316       0
    3318    3319    3320    3321    3322    3319    3320    3321    3322    3320
    3321    3322    3321    3322    3322       0    3324    3325    3326    3327
    3328    3325    3326    3327    3328    3326    3327    3328    3327    3328
    3328       0    3330    3331    3332    3333    3334    3331    3332    3333
    3334    3332    3333    3334    3333    3334    3334       0    3336    3337
    3338    3339    3340    3337    3338    3339    3340    3338    3339    3340
    3339    3340    3340       0    3342    3343    3344    3345    3346    3343
    3344    3345    3346    3344    3345    3346    3345    3346    3346       0
    3348    3349    3350    3351    3352    3349    3350    3351    3352    3350
    3351    3352    3351    3352    3352       0    3354    3355    3356    3357
    3358    3355    3356    3357    3358    3356    3357    3358    3357    3358
    3358       0    3360    3361    3362    3363    3364    3361    3362    3363
    3364    3362    3363    3364    3363    3364    3364       0    3366    3367
    3368    3369    3370    3367    3368    3369    3370    3368    3369    3370
    3369    3370    3370       0    3372    3373    3374    3375    3376    3373
    3374    3375    3376    3374    3375    3376    3375    3376    3376       0
    3378    3379    3380    3381    3382    3379    3380    3381    3382    3380
    3381    3382    3381    3382    3382       0    3384    3385    3386    3387
    3388    3385    3386    3387    3388    3386    3387    3388    3387    3388
    3388       0    3390    3391    3392    3393    3394    3391    3392    3393
    3394    3392    3393    3394    3393    3394    3394       0    3396    3397
    3398    3399    3400    3397    3398    3399    3400    3398    3399    3400
    3399    3400    3400       0    3402    3403    3404    3405    3406    3403
    3404    3405    3406    3404    3405    3406    3405    3406    3406       0
    3408    3409    3410    3411    3412    3409    3410    3411    3412    3410
    3411    3412    3411    3412    3412       0    3414    3415    3416    3417
    3418    3415    3416    3417    3418    3416    3417    3418    3417    3418
    3418       0    3420    3421    3422    3423    3424    3421    3422    3423
    3424    3422    3423    3424    3423    3424    3424       0    3426    3427
    3428    3429    3430    3427    3428    3429    3430    3428    3429    3430
    3429    3430    3430       0    3432    3433    3434    3435    3436    3433
    3434    3435    3436    3434    3435    3436    3435    3436    3436       0
    3438    3439    3440    3441    3442    3439    3440    3441    3442    3440
    3441    3442    3441    3442    3442       0    3444    3445    3446    3447
    3448    3445    3446    3447    3448    3446    3447    3448    3447    3448
    3448       0    3450    3451    3452    3453    3454    3451    3452    3453
    3454    3452    3453    3454    3453    3454    3454       0    3456    3457
    3458    3459    3460    3457    3458    3459    3460    3458    3459    3460
    3459    3460    3460       0    3462    3463    3464    3465    3466    3463
    3464    3465    3466    3464    3465    3466    3465    3466    3466       0
    3468    3469    3470    3471    3472    3469    3470    3471    3472    3470
    3471    3472    3471    3472    3472       0    3474    3475    3476    3477
    3478    3475    3476    3477    3478    3476    3477    3478    3477    3478
    3478       0    3480    3481    3482    3483    3484    3481    3482    3483
    3484    3482    3483    3484    3483    3484    3484       0    3486    3487
    3488    3489    3490    3487    3488    3489    3490    3488    3489    3490
    3489    3490    3490       0    3492    3493    3494    3495    3496    3493
    3494    3495    3496    3494    3495    3496    3495    3496    3496       0
    3498    3499    3500    3501    3502    3499    3500    3501    3502    3500
    3501    3502    3501    3502    3502       0    3504    3505    3506    3507
    3508    3505    3506    3507    3508    3506    3507    3508    3507    3508
    3508       0    3510    3511    3512    3513    3514    3511    3512    3513
    3514    3512    3513    3514    3513    3514    3514       0    3516    3517
    3518    3519    3520    3517    3518    3519    3520    3518    3519    3520
    3519    3520    3520       0    3522    3523    3524    3525    3526    3523
    3524    3525    3526    3524    3525    3526    3525    3526    3526       0
    3528    3529    3530    3531    3532    3529    3530    3531    3532    3530
    3531    3532    3531    3532    3532       0    3534    3535    3536    3537
    3538    3535    3536    3537    3538    3536    3537    3538    3537    3538
    3538       0    3540    3541    3542    3543    3544    3541    3542    3543
    3544    3542    3543    3544    3543    3544    3544       0    3546    3547
    3548    3549    3550    3547    3548    3549    3550    3548    3549    3550
    3549    3550    3550       0    3552    3553    3554    3555    3556    3553
    3554    3555    3556    3554    3555    3556    3555    3556    3556       0
    3558    3559    3560    3561    3562    3559    3560    3561    3562    3560
    3561    3562    3561    3562    3562       0    3564    3565    3566    3567
    3568    3565    3566    3567    3568    3566    3567    3568    3567    3568
    3568       0    3570    3571    3572    3573    3574    3571    3572    3573
    3574    3572    3573    3574    3573    3574    3574       0    3576    3577
    3578    3579    3580    3577    3578    3579    3580    3578    3579    3580
    3579    3580    3580       0    3582    3583    3584    3585    3586    3583
    3584    3585    3586    3584    3585    3586    3585    3586    3586       0
    3588    3589    3590    3591    3592    3589    3590    3591    3592    3590
    3591    3592    3591    3592    3592       0    3594    3595    3596    3597
    3598    3595    3596    3597    3598    3596    3597    3598    3597    3598
    3598       0    3600    3601    3602    3603    3604    3601    3602    3603
    3604    3602    3603    3604    3603    3604    3604       0    3606    3607
    3608    3609    3610    3607    3608    3609    3610    3608    3609    3610
    3609    3610    3610       0    3612    3613    3614    3615    3616    3613
    3614    3615    3616    3614    3615    3616    3615    3616    3616       0
    3618    3619    3620    3621    3622    3619    3620    3621    3622    3620
    3621    3622    3621    3622    3622       0    3624    3625    3626    3627
    3628    3625    3626    3627    3628    3626    3627    3628    3627    3628
    3628       0    3630    3631    3632    3633    3634    3631    3632    3633
    3634    3632    3633    3634    3633    3634    3634       0    3636    3637
    3638    3639    3640    3637    3638    3639    3640    3638    3639    3640
    3639    3640    3640       0    3642    3643    3644    3645    3646    3643
    3644    3645    3646    3644    3645    3646    3645    3646    3646       0
    3648    3649    3650    3651    3652    3649    3650    3651    3652    3650
    3651    3652    3651    3652    3652       0    3654    3655    3656    3657
    3658    3655    3656    3657    3658    3656    3657    3658    3657    3658
    3658       0    3660    3661    3662    3663    3664    3661    3662    3663
    3664    3662    3663    3664    3663    3664    3664       0    3666    3667
    3668    3669    3670    3667    3668    3669    3670    3668    3669    3670
    3669    3670    3670       0    3672    3673    3674    3675    3676    3673
    3674    3675    3676    3674    3675    3676    3675    3676    3676       0
    3678    3679    3680    3681    3682    3679    3680    3681    3682    3680
    3681    3682    3681    3682    3682       0    3684    3685    3686    3687
    3688    3685    3686    3687    3688    3686    3687    3688    3687    3688
    3688       0    3690    3691    3692    3693    3694    3691    3692    3693
    3694    3692    3693    3694    3693    3694    3694       0    3696    3697
    3698    3699    3700    3697    3698    3699    3700    3698    3699    3700
    3699    3700    3700       0    3702    3703    3704    3705    3706    3703
    3704    3705    3706    3704    3705    3706    3705    3706    3706       0
    3708    3709    3710    3711    3712    3709    3710    3711    3712    3710
    3711    3712    3711    3712    3712       0    3714    3715    3716    3717
    3718    3715    3716    3717    3718    3716    3717    3718    3717    3718
    3718       0    3720    3721    3722    3723    3724    3721    3722    3723
    3724    3722    3723    3724    3723    3724    3724       0    3726    3727
    3728    3729    3730    3727    3728    3729    3730    3728    3729    3730
    3729    3730    3730       0    3732    3733    3734    3735    3736    3733
    3734    3735    3736    3734    3735    3736    3735    3736    3736       0
    3738    3739    3740    3741    3742    3739    3740    3741    3742    3740
    3741    3742    3741    3742    3742       0    3744    3745    3746    3747
    3748    3745    3746    3747    3748    3746    3747    3748    3747    3748
    3748       0    3750    3751    3752    3753    3754    3751    3752    3753
    3754    3752    3753    3754    3753    3754    3754       0    3756    3757
    3758    3759    3760    3757    3758    3759    3760    3758    3759    3760
    3759    3760    3760       0    3762    3763    3764    3765    3766    3763
    3764    3765    3766    3764    3765    3766    3765    3766    3766       0
    3768    3769    3770    3771    3772    3769    3770    3771    3772    3770
    3771    3772    3771    3772    3772       0    3774    3775    3776    3777
    3778    3775    3776    3777    3778    3776    3777    3778    3777    3778
    3778       0    3780    3781    3782    3783    3784    3781    3782    3783
    3784    3782    3783    3784    3783    3784    3784       0    3786    3787
    3788    3789    3790    3787    3788    3789    3790    3788    3789    3790
    3789    3790    3790       0    3792    3793    3794    3795    3796    3793
    3794    3795    3796    3794    3795    3796    3795    3796    3796       0
    3798    3799    3800    3801    3802    3799    3800    3801    3802    3800
    3801    3802    3801    3802    3802       0    3804    3805    3806    3807
    3808    3805    3806    3807    3808    3806    3807    3808    3807    3808
    3808       0    3810    3811    3812    3813    3814    3811    3812    3813
    3814    3812    3813    3814    3813    3814    3814       0    3816    3817
    3818    3819    3820    3817    3818    3819    3820    3818    3819    3820
    3819    3820    3820       0    3822    3823    3824    3825    3826    3823
    3824    3825    3826    3824    3825    3826    3825    3826    3826       0
    3828    3829    3830    3831    3832    3829    3830    3831    3832    3830
    3831    3832    3831    3832    3832       0    3834    3835    3836    3837
    3838    3835    3836    3837    3838    3836    3837    3838    3837    3838
    3838       0    3840    3841    3842    3843    3844    3841    3842    3843
    3844    3842    3843    3844    3843    3844    3844       0    3846    3847
    3848    3849    3850    3847    3848    3849    3850    3848    3849    3850
    3849    3850    3850       0    3852    3853    3854    3855    3856    3853
    3854    3855    3856    3854    3855    3856    3855    3856    3856       0
    3858    3859    3860    3861    3862    3859    3860    3861    3862    3860
    3861    3862    3861    3862    3862       0    3864    3865    3866    3867
    3868    3865    3866    3867    3868    3866    3867    3868    3867    3868
    3868       0    3870    3871    3872    3873    3874    3871    3872    3873
    3874    3872    3873    3874    3873    3874    3874       0    3876    3877
    3878    3879    3880    3877    3878    3879    3880    3878    3879    3880
    3879    3880    3880       0    3882    3883    3884    3885    3886    3883
    3884    3885    3886    3884    3885    3886    3885    3886    3886       0
    3888    3889    3890    3891    3892    3889    3890    3891    3892    3890
    3891    3892    3891    3892    3892       0    3894    3895    3896    3897
    3898    3895    3896    3897    3898    3896    3897    3898    3897    3898
    3898       0    3900    3901    3902    3903    3904    3901    3902    3903
    3904    3902    3903    3904    3903    3904    3904       0    3906    3907
    3908    3909    3910    3907    3908    3909    3910    3908    3909    3910
    3909    3910    3910       0    3912    3913    3914    3915    3916    3913
    3914    3915    3916    3914    3915    3916    3915    3916    3916       0
    3918    3919    3920    3921    3922    3919    3920    3921    3922    3920
    3921    3922    3921    3922    3922       0    3924    3925    3926    3927
    3928    3925    3926    3927    3928    3926    3927    3928    3927    3928
    3928       0    3930    3931    3932    3933    3934    3931    3932    3933
    3934    3932    3933    3934    3933    3934    3934       0    3936    3937
    3938    3939    3940    3937    3938    3939    3940    3938    3939    3940
    3939    3940    3940       0    3942    3943    3944    3945    3946    3943
    3944    3945    3946    3944    3945    3946    3945    3946    3946       0
    3948    3949    3950    3951    3952    3949    3950    3951    3952    3950
    3951    3952    3951    3952    3952       0    3954    3955    3956    3957
    3958    3955    3956    3957    3958    3956    3957    3958    3957    3958
    3958       0    3960    3961    3962    3963    3964    3961    3962    3963
    3964    3962    3963    3964    3963    3964    3964       0    3966    3967
    3968    3969    3970    3967    3968    3969    3970    3968    3969    3970
    3969    3970    3970       0    3972    3973    3974    3975    3976    3973
    3974    3975    3976    3974    3975    3976    3975    3976    3976       0
    3978    3979    3980    3981    3982    3979    3980    3981    3982    3980
    3981    3982    3981    3982    3982       0    3984    3985    3986    3987
    3988    3985    3986    3987    3988    3986    3987    3988    3987    3988
    3988       0    3990    3991    3992    3993    3994    3991    3992    3993
    3994    3992    3993    3994    3993    3994    3994       0    3996    3997
    3998    3999    4000    3997    3998    3999    4000    3998    3999    4000
    3999    4000    4000       0    4002    4003    4004    4005    4006    4003
    4004    4005    4006    4004    4005    4006    4005    4006    4006       0
    4008    4009    4010    4011    4012    4009    4010    4011    4012    4010
    4011    4012    4011    4012    4012       0    4014    4015    4016    4017
    4018    4015    4016    4017    4018    4016    4017    4018    4017    4018
    4018       0    4020    4021    4022    4023    4024    4021    4022    4023
    4024    4022    4023    4024    4023    4024    4024       0    4026    4027
    4028    4029    4030    4027    4028    4029    4030    4028    4029    4030
    4029    4030    4030       0    4032    4033    4034    4035    4036    4033
    4034    4035    4036    4034    4035    4036    4035    4036    4036       0
    4038    4039    4040    4041    4042    4039    4040    4041    4042    4040
    4041    4042    4041    4042    4042       0    4044    4045    4046    4047
    4048    4045    4046    4047    4048    4046    4047    4048    4047    4048
    4048       0    4050    4051    4052    4053    4054    4051    4052    4053
    4054    4052    4053    4054    4053    4054    4054       0    4056    4057
    4058    4059    4060    4057    4058    4059    4060    4058    4059    4060
    4059    4060    4060       0    4062    4063    4064    4065    4066    4063
    4064    4065    4066    4064    4065    4066    4065    4066    4066       0
    4068    4069    4070    4071    4072    4069    4070    4071    4072    4070
    4071    4072    4071    4072    4072       0    4074    4075    4076    4077
    4078    4075    4076    4077    4078    4076    4077    4078    4077    4078
    4078       0    4080    4081    4082    4083    4084    4081    4082    4083
    4084    4082    4083    4084    4083    4084    4084       0    4086    4087
    4088    4089    4090    4087    4088    4089    4090    4088    4089    4090
    4089    4090    4090       0    4092    4093    4094    4095    4096    4093
    4094    4095    4096    4094    4095    4096    4095    4096    4096       0
    4098    4099    4100    4101    4102    4099    4100    4101    4102    4100
    4101    4102    4101    4102    4102       0    4104    4105    4106    4107
    4108    4105    4106    4107    4108    4106    4107    4108    4107    4108
    4108       0    4110    4111    4112    4113    4114    4111    4112    4113
    4114    4112    4113    4114    4113    4114    4114       0    4116    4117
    4118    4119    4120    4117    4118    4119    4120    4118    4119    4120
    4119    4120    4120       0    4122    4123    4124    4125    4126    4123
    4124    4125    4126    4124    4125    4126    4125    4126    4126       0
    4128    4129    4130    4131    4132    4129    4130    4131    4132    4130
    4131    4132    4131    4132    4132       0    4134    4135    4136    4137
    4138    4135    4136    4137    4138    4136    4137    4138    4137    4138
    4138       0    4140    4141    4142    4143    4144    4141    4142    4143
    4144    4142    4143    4144    4143    4144    4144       0    4146    4147
    4148    4149    4150    4147    4148    4149    4150    4148    4149    4150
    4149    4150    4150       0    4152    4153    4154    4155    4156    4153
    4154    4155    4156    4154    4155    4156    4155    4156    4156       0
    4158    4159    4160    4161    4162    4159    4160    4161    4162    4160
    4161    4162    4161    4162    4162       0    4164    4165    4166    4167
    4168    4165    4166    4167    4168    4166    4167    4168    4167    4168
    4168       0    4170    4171    4172    4173    4174    4171    4172    4173
    4174    4172    4173    4174    4173    4174    4174       0    4176    4177
    4178    4179    4180    4177    4178    4179    4180    4178    4179    4180
    4179    4180    4180       0    4182    4183    4184    4185    4186    4183
    4184    4185    4186    4184    4185    4186    4185    4186    4186       0
    4188    4189    4190    4191    4192    4189    4190    4191    4192    4190
    4191    4192    4191    4192    4192       0    4194    4195    4196    4197
    4198    4195    4196    4197    4198    4196    4197    4198    4197    4198
    4198       0    4200    4201    4202    4203    4204    4201    4202    4203
    4204    4202    4203    4204    4203    4204    4204       0    4206    4207
    4208    4209    4210    4207    4208    4209    4210    4208    4209    4210
    4209    4210    4210       0    4212    4213    4214    4215    4216    4213
    4214    4215    4216    4214    4215    4216    4215    4216    4216       0
    4218    4219    4220    4221    4222    4219    4220    4221    4222    4220
    4221    4222    4221    4222    4222       0    4224    4225    4226    4227
    4228    4225    4226    4227    4228    4226    4227    4228    4227    4228
    4228       0    4230    4231    4232    4233    4234    4231    4232    4233
    4234    4232    4233    4234    4233    4234    4234       0    4236    4237
    4238    4239    4240    4237    4238    4239    4240    4238    4239    4240
    4239    4240    4240       0    4242    4243    4244    4245    4246    4243
    4244    4245    4246    4244    4245    4246    4245    4246    4246       0
    4248    4249    4250    4251    4252    4249    4250    4251    4252    4250
    4251    4252    4251    4252    4252       0    4254    4255    4256    4257
    4258    4255    4256    4257    4258    4256    4257    4258    4257    4258
    4258       0    4260    4261    4262    4263    4264    4261    4262    4263
    4264    4262    4263    4264    4263    4264    4264       0    4266    4267
    4268    4269    4270    4267    4268    4269    4270    4268    4269    4270
    4269    4270    4270       0    4272    4273    4274    4275    4276    4273
    4274    4275    4276    4274    4275    4276    4275    4276    4276       0
    4278    4279    4280    4281    4282    4279    4280    4281    4282    4280
    4281    4282    4281    4282    4282       0    4284    4285    4286    4287
    4288    4285    4286    4287    4288    4286    4287    4288    4287    4288
    4288       0    4290    4291    4292    4293    4294    4291    4292    4293
    4294    4292    4293    4294    4293    4294    4294       0    4296    4297
    4298    4299    4300    4297    4298    4299    4300    4298    4299    4300
    4299    4300    4300       0    4302    4303    4304    4305    4306    4303
    4304    4305    4306    4304    4305    4306    4305    4306    4306       0
    4308    4309    4310    4311    4312    4309    4310    4311    4312    4310
    4311    4312    4311    4312    4312       0    4314    4315    4316    4317
    4318    4315    4316    4317    4318    4316    4317    4318    4317    4318
    4318       0    4320    4321    4322    4323    4324    4321    4322    4323
    4324    4322    4323    4324    4323    4324    4324       0    4326    4327
    4328    4329    4330    4327    4328    4329    4330    4328    4329    4330
    4329    4330    4330       0    4332    4333    4334    4335    4336    4333
    4334    4335    4336    4334    4335    4336    4335    4336    4336       0
    4338    4339    4340    4341    4342    4339    4340    4341    4342    4340
    4341    4342    4341    4342    4342       0    4344    4345    4346    4347
    4348    4345    4346    4347    4348    4346    4347    4348    4347    4348
    4348       0    4350    4351    4352    4353    4354    4351    4352    4353
    4354    4352    4353    4354    4353    4354    4354       0    4356    4357
    4358    4359    4360    4357    4358    4359    4360    4358    4359    4360
    4359    4360    4360       0    4362    4363    4364    4365    4366    4363
    4364    4365    4366    4364    4365    4366    4365    4366    4366       0
    4368    4369    4370    4371    4372    4369    4370    4371    4372    4370
    4371    4372    4371    4372    4372       0    4374    4375    4376    4377
    4378    4375    4376    4377    4378    4376    4377    4378    4377    4378
    4378       0    4380    4381    4382    4383    4384    4381    4382    4383
    4384    4382    4383    4384    4383    4384    4384       0    4386    4387
    4388    4389    4390    4387    4388    4389    4390    4388    4389    4390
    4389    4390    4390       0    4392    4393    4394    4395    4396    4393
    4394    4395    4396    4394    4395    4396    4395    4396    4396       0
    4398    4399    4400    4401    4402    4399    4400    4401    4402    4400
    4401    4402    4401    4402    4402       0    4404    4405    4406    4407
    4408    4405    4406    4407    4408    4406    4407    4408    4407    4408
    4408       0    4410    4411    4412    4413    4414    4411    4412    4413
    4414    4412    4413    4414    4413    4414    4414       0    4416    4417
    4418    4419    4420    4417    4418    4419    4420    4418    4419    4420
    4419    4420    4420       0    4422    4423    4424    4425    4426    4423
    4424    4425    4426    4424    4425    4426    4425    4426    4426       0
    4428    4429    4430    4431    4432    4429    4430    4431    4432    4430
    4431    4432    4431    4432    4432       0    4434    4435    4436    4437
    4438    4435    4436    4437    4438    4436    4437    4438    4437    4438
    4438       0    4440    4441    4442    4443    4444    4441    4442    4443
    4444    4442    4443    4444    4443    4444    4444       0    4446    4447
    4448    4449    4450    4447    4448    4449    4450    4448    4449    4450
    4449    4450    4450       0    4452    4453    4454    4455    4456    4453
    4454    4455    4456    4454    4455    4456    4455    4456    4456       0
    4458    4459    4460    4461    4462    4459    4460    4461    4462    4460
    4461    4462    4461    4462    4462       0    4464    4465    4466    4467
    4468    4465    4466    4467    4468    4466    4467    4468    4467    4468
    4468       0    4470    4471    4472    4473    4474    4471    4472    4473
    4474    4472    4473    4474    4473    4474    4474       0    4476    4477
    4478    4479    4480    4477    4478    4479    4480    4478    4479    4480
    4479    4480    4480       0    4482    4483    4484    4485    4486    4483
    4484    4485    4486    4484    4485    4486    4485    4486    4486       0
    4488    4489    4490    4491    4492    4489    4490    4491    4492    4490
    4491    4492    4491    4492    4492       0    4494    4495    4496    4497
    4498    4495    4496    4497    4498    4496    4497    4498    4497    4498
    4498       0    4500    4501    4502    4503    4504    4501    4502    4503
    4504    4502    4503    4504    4503    4504    4504       0    4506    4507
    4508    4509    4510    4507    4508    4509    4510    4508    4509    4510
    4509    4510    4510       0    4512    4513    4514    4515    4516    4513
    4514    4515    4516    4514    4515    4516    4515    4516    4516       0
    4518    4519    4520    4521    4522    4519    4520    4521    4522    4520
    4521    4522    4521    4522    4522       0    4524    4525    4526    4527
    4528    4525    4526    4527    4528    4526    4527    4528    4527    4528
    4528       0    4530    4531    4532    4533    4534    4531    4532    4533
    4534    4532    4533    4534    4533    4534    4534       0    4536    4537
    4538    4539    4540    4537    4538    4539    4540    4538    4539    4540
    4539    4540    4540       0    4542    4543    4544    4545    4546    4543
    4544    4545    4546    4544    4545    4546    4545    4546    4546       0
    4548    4549    4550    4551    4552    4549    4550    4551    4552    4550
    4551    4552    4551    4552    4552       0    4554    4555    4556    4557
    4558    4555    4556    4557    4558    4556    4557    4558    4557    4558
    4558       0    4560    4561    4562    4563    4564    4561    4562    4563
    4564    4562    4563    4564    4563    4564    4564       0    4566    4567
    4568    4569    4570    4567    4568    4569    4570    4568    4569    4570
    4569    4570    4570       0    4572    4573    4574    4575    4576    4573
    4574    4575    4576    4574    4575    4576    4575    4576    4576       0
    4578    4579    4580    4581    4582    4579    4580    4581    4582    4580
    4581    4582    4581    4582    4582       0    4584    4585    4586    4587
    4588    4585    4586    4587    4588    4586    4587    4588    4587    4588
    4588       0    4590    4591    4592    4593    4594    4591    4592    4593
    4594    4592    4593    4594    4593    4594    4594       0    4596    4597
    4598    4599    4600    4597    4598    4599    4600    4598    4599    4600
    4599    4600    4600       0    4602    4603    4604    4605    4606    4603
    4604    4605    4606    4604    4605    4606    4605    4606    4606       0
    4608    4609    4610    4611    4612    4609    4610    4611    4612    4610
    4611    4612    4611    4612    4612       0    4614    4615    4616    4617
    4618    4615    4616    4617    4618    4616    4617    4618    4617    4618
    4618       0    4620    4621    4622    4623    4624    4621    4622    4623
    4624    4622    4623    4624    4623    4624    4624       0    4626    4627
    4628    4629    4630    4627    4628    4629    4630    4628    4629    4630
    4629    4630    4630       0    4632    4633    4634    4635    4636    4633
    4634    4635    4636    4634    4635    4636    4635    4636    4636       0
    4638    4639    4640    4641    4642    4639    4640    4641    4642    4640
    4641    4642    4641    4642    4642       0    4644    4645    4646    4647
    4648    4645    4646    4647    4648    4646    4647    4648    4647    4648
    4648       0    4650    4651    4652    4653    4654    4651    4652    4653
    4654    4652    4653    4654    4653    4654    4654       0    4656    4657
    4658    4659    4660    4657    4658    4659    4660    4658    4659    4660
    4659    4660    4660       0    4662    4663    4664    4665    4666    4663
    4664    4665    4666    4664    4665    4666    4665    4666    4666       0
    4668    4669    4670    4671    4672    4669    4670    4671    4672    4670
    4671    4672    4671    4672    4672       0    4674    4675    4676    4677
    4678    4675    4676    4677    4678    4676    4677    4678    4677    4678
    4678       0    4680    4681    4682    4683    4684    4681    4682    4683
    4684    4682    4683    4684    4683    4684    4684       0    4686    4687
    4688    4689    4690    4687    4688    4689    4690    4688    4689    4690
    4689    4690    4690       0    4692    4693    4694    4695    4696    4693
    4694    4695    4696    4694    4695    4696    4695    4696    4696       0
    4698    4699    4700    4701    4702    4699    4700    4701    4702    4700
    4701    4702    4701    4702    4702       0    4704    4705    4706    4707
    4708    4705    4706    4707    4708    4706    4707    4708    4707    4708
    4708       0    4710    4711    4712    4713    4714    4711    4712    4713
    4714    4712    4713    4714    4713    4714    4714       0    4716    4717
    4718    4719    4720    4717    4718    4719    4720    4718    4719    4720
    4719    4720    4720       0    4722    4723    4724    4725    4726    4723
    4724    4725    4726    4724    4725    4726    4725    4726    4726       0
    4728    4729    4730    4731    4732    4729    4730    4731    4732    4730
    4731    4732    4731    4732    4732       0    4734    4735    4736    4737
    4738    4735    4736    4737    4738    4736    4737    4738    4737    4738
    4738       0    4740    4741    4742    4743    4744    4741    4742    4743
    4744    4742    4743    4744    4743    4744    4744       0    4746    4747
    4748    4749    4750    4747    4748    4749    4750    4748    4749    4750
    4749    4750    4750       0    4752    4753    4754    4755    4756    4753
    4754    4755    4756    4754    4755    4756    4755    4756    4756       0
    4758    4759    4760    4761    4762    4759    4760    4761    4762    4760
    4761    4762    4761    4762    4762       0    4764    4765    4766    4767
    4768    4765    4766    4767    4768    4766    4767    4768    4767    4768
    4768       0    4770    4771    4772    4773    4774    4771    4772    4773
    4774    4772    4773    4774    4773    4774    4774       0    4776    4777
    4778    4779    4780    4777    4778    4779    4780    4778    4779    4780
    4779    4780    4780       0    4782    4783    4784    4785    4786    4783
    4784    4785    4786    4784    4785    4786    4785    4786    4786       0
    4788    4789    4790    4791    4792    4789    4790    4791    4792    4790
    4791    4792    4791    4792    4792       0    4794    4795    4796    4797
    4798    4795    4796    4797    4798    4796    4797    4798    4797    4798
    4798       0    4800    4801    4802    4803    4804    4801    4802    4803
    4804    4802    4803    4804    4803    4804    4804       0    4806    4807
    4808    4809    4810    4807    4808    4809    4810    4808    4809    4810
    4809    4810    4810       0    4812    4813    4814    4815    4816    4813
    4814    4815    4816    4814    4815    4816    4815    4816    4816       0
    4818    4819    4820    4821    4822    4819    4820    4821    4822    4820
    4821    4822    4821    4822    4822       0    4824    4825    4826    4827
    4828    4825    4826    4827    4828    4826    4827    4828    4827    4828
    4828       0    4830    4831    4832    4833    4834    4831    4832    4833
    4834    4832    4833    4834    4833    4834    4834       0    4836    4837
    4838    4839    4840    4837    4838    4839    4840    4838    4839    4840
    4839    4840    4840       0    4842    4843    4844    4845    4846    4843
    4844    4845    4846    4844    4845    4846    4845    4846    4846       0
    4848    4849    4850    4851    4852    4849    4850    4851    4852    4850
    4851    4852    4851    4852    4852       0    4854    4855    4856    4857
    4858    4855    4856    4857    4858    4856    4857    4858    4857    4858
    4858       0    4860    4861    4862    4863    4864    4861    4862    4863
    4864    4862    4863    4864    4863    4864    4864       0    4866    4867
    4868    4869    4870    4867    4868    4869    4870    4868    4869    4870
    4869    4870    4870       0    4872    4873    4874    4875    4876    4873
    4874    4875    4876    4874    4875    4876    4875    4876    4876       0
    4878    4879    4880    4881    4882    4879    4880    4881    4882    4880
    4881    4882    4881    4882    4882       0    4884    4885    4886    4887
    4888    4885    4886    4887    4888    4886    4887    4888    4887    4888
    4888       0    4890    4891    4892    4893    4894    4891    4892    4893
    4894    4892    4893    4894    4893    4894    4894       0    4896    4897
    4898    4899    4900    4897    4898    4899    4900    4898    4899    4900
    4899    4900    4900       0    4902    4903    4904    4905    4906    4903
    4904    4905    4906    4904    4905    4906    4905    4906    4906       0
    4908    4909    4910    4911    4912    4909    4910    4911    4912    4910
    4911    4912    4911    4912    4912       0    4914    4915    4916    4917
    4918    4915    4916    4917    4918    4916    4917    4918    4917    4918
    4918       0    4920    4921    4922    4923    4924    4921    4922    4923
    4924    4922    4923    4924    4923    4924    4924       0    4926    4927
    4928    4929    4930    4927    4928    4929    4930    4928    4929    4930
    4929    4930    4930       0    4932    4933    4934    4935    4936    4933
    4934    4935    4936    4934    4935    4936    4935    4936    4936       0
    4938    4939    4940    4941    4942    4939    4940    4941    4942    4940
    4941    4942    4941    4942    4942       0    4944    4945    4946    4947
    4948    4945    4946    4947    4948    4946    4947    4948    4947    4948
    4948       0    4950    4951    4952    4953    4954    4951    4952    4953
    4954    4952    4953    4954    4953    4954    4954       0    4956    4957
    4958    4959    4960    4957    4958    4959    4960    4958    4959    4960
    4959    4960    4960       0    4962    4963    4964    4965    4966    4963
    4964    4965    4966    4964    4965    4966    4965    4966    4966       0
    4968    4969    4970    4971    4972    4969    4970    4971    4972    4970
    4971    4972    4971    4972    4972       0    4974    4975    4976    4977
    4978    4975    4976    4977    4978    4976    4977    4978    4977    4978
    4978       0    4980    4981    4982    4983    4984    4981    4982    4983
    4984    4982    4983    4984    4983    4984    4984       0    4986    4987
    4988    4989    4990    4987    4988    4989    4990    4988    4989    4990
    4989    4990    4990       0    4992    4993    4994    4995    4996    4993
    4994    4995    4996    4994    4995    4996    4995    4996    4996       0
    4998    4999    5000    5001    5002    4999    5000    5001    5002    5000
    5001    5002    5001    5002    5002       0    5004    5005    5006    5007
    5008    5005    5006    5007    5008    5006    5007    5008    5007    5008
    5008       0    5010    5011    5012    5013    5014    5011    5012    5013
    5014    5012    5013    5014    5013    5014    5014       0    5016    5017
    5018    5019    5020    5017    5018    5019    5020    5018    5019    5020
    5019    5020    5020       0    5022    5023    5024    5025    5026    5023
    5024    5025    5026    5024    5025    5026    5025    5026    5026       0
    5028    5029    5030    5031    5032    5029    5030    5031    5032    5030
    5031    5032    5031    5032    5032       0    5034    5035    5036    5037
    5038    5035    5036    5037    5038    5036    5037    5038    5037    5038
    5038       0    5040    5041    5042    5043    5044    5041    5042    5043
    5044    5042    5043    5044    5043    5044    5044       0    5046    5047
    5048    5049    5050    5047    5048    5049    5050    5048    5049    5050
    5049    5050    5050       0    5052    5053    5054    5055    5056    5053
    5054    5055    5056    5054    5055    5056    5055    5056    5056       0
    5058    5059    5060    5061    5062    5059    5060    5061    5062    5060
    5061    5062    5061    5062    5062       0    5064    5065    5066    5067
    5068    5065    5066    5067    5068    5066    5067    5068    5067    5068
    5068       0    5070    5071    5072    5073    5074    5071    5072    5073
    5074    5072    5073    5074    5073    5074    5074       0    5076    5077
    5078    5079    5080    5077    5078    5079    5080    5078    5079    5080
    5079    5080    5080       0    5082    5083    5084    5085    5086    5083
    5084    5085    5086    5084    5085    5086    5085    5086    5086       0
    5088    5089    5090    5091    5092    5089    5090    5091    5092    5090
    5091    5092    5091    5092    5092       0    5094    5095    5096    5097
    5098    5095    5096    5097    5098    5096    5097    5098    5097    5098
    5098       0    5100    5101    5102    5103    5104    5101    5102    5103
    5104    5102    5103    5104    5103    5104    5104       0    5106    5107
    5108    5109    5110    5107    5108    5109    5110    5108    5109    5110
    5109    5110    5110       0    5112    5113    5114    5115    5116    5113
    5114    5115    5116    5114    5115    5116    5115    5116    5116       0
    5118    5119    5120    5121    5122    5119    5120    5121    5122    5120
    5121    5122    5121    5122    5122       0    5124    5125    5126    5127
    5128    5125    5126    5127    5128    5126    5127    5128    5127    5128
    5128       0    5130    5131    5132    5133    5134    5131    5132    5133
    5134    5132    5133    5134    5133    5134    5134       0    5136    5137
    5138    5139    5140    5137    5138    5139    5140    5138    5139    5140
    5139    5140    5140       0    5142    5143    5144    5145    5146    5143
    5144    5145    5146    5144    5145    5146    5145    5146    5146       0
    5148    5149    5150    5151    5152    5149    5150    5151    5152    5150
    5151    5152    5151    5152    5152       0    5154    5155    5156    5157
    5158    5155    5156    5157    5158    5156    5157    5158    5157    5158
    5158       0    5160    5161    5162    5163    5164    5161    5162    5163
    5164    5162    5163    5164    5163    5164    5164       0    5166    5167
    5168    5169    5170    5167    5168    5169    5170    5168    5169    5170
    5169    5170    5170       0    5172    5173    5174    5175    5176    5173
    5174    5175    5176    5174    5175    5176    5175    5176    5176       0
    5178    5179    5180    5181    5182    5179    5180    5181    5182    5180
    5181    5182    5181    5182    5182       0    5184    5185    5186    5187
    5188    5185    5186    5187    5188    5186    5187    5188    5187    5188
    5188       0    5190    5191    5192    5193    5194    5191    5192    5193
    5194    5192    5193    5194    5193    5194    5194       0    5196    5197
    5198    5199    5200    5197    5198    5199    5200    5198    5199    5200
    5199    5200    5200       0    5202    5203    5204    5205    5206    5203
    5204    5205    5206    5204    5205    5206    5205    5206    5206       0
    5208    5209    5210    5211    5212    5209    5210    5211    5212    5210
    5211    5212    5211    5212    5212       0
%FLAG HBOND_ACOEF                                                               
%FORMAT(5E16.8)                                                                 

%FLAG HBOND_BCOEF                                                               
%FORMAT(5E16.8)                                                                 

%FLAG HBCUT                                                                     
%FORMAT(5E16.8)                                                                 

%FLAG AMBER_ATOM_TYPE                                                           
%FORMAT(20a4)                                                                   
N   H   CX  H1  C   O   CT  HC  HC  CT  HC  HC  HC  C   O   N   CT  H1  H1  H1  
CT  H1  H1  C   O   N   CT  H1  H1  H1  CT  H1  CT  HC  HC  CT  HC  CT  HC  HC  
HC  CT  HC  HC  HC  N   H   CX  H1  C   O   CT  HC  CT  HC  HC  HC  CT  HC  HC  
HC  C   O   N   CT  H1  H1  H1  CT  H1  CT  HC  HC  CT  HC  CT  HC  HC  HC  CT  
HC  HC  HC  N   H   CX  H1  CT  HC  HC  HC  C   O   C   O   N   H   CX  H1  CT  
HC  HC  HC  C   O   N   CT  H1  H1  H1  CT  H1  CT  HC  HC  CT  HC  CT  HC  HC  
HC  CT  HC  HC  HC  C   O   N   CT  H1  H1  H1  CT  H1  CT  HC  HC  CT  HC  CT  
HC  HC  HC  CT  HC  HC  HC  C   O   N   CT  H1  H1  H1  CT  H1  CT  H1  OH  HO  
CM  HA  CM  HA  CT  HC  HC  HC  CT  HC  HC  CT  HC  CT  HC  HC  HC  C   O   N   
CT  H1  H1  H1  CT  H1  CT  HC  CT  HC  HC  HC  CT  HC  HC  HC  H1  CT  H1  H1  
OH  HO  H1  CT  H1  H1  OH  HO  H1  CT  H1  H1  OH  HO  H1  CT  H1  H1  OH  HO  
H1  CT  H1  H1  OH  HO  H1  CT  H1  H1  OH  HO  H1  CT  H1  H1  OH  HO  H1  CT  
H1  H1  OH  HO  H1  CT  H1  H1  OH  HO  H1  CT  H1  H1  OH  HO  H1  CT  H1  H1  
OH  HO  H1  CT  H1  H1  OH  HO  H1  CT  H1  H1  OH  HO  H1  CT  H1  H1  OH  HO  
H1  CT  H1  H1  OH  HO  H1  CT  H1  H1  OH  HO  H1  CT  H1  H1  OH  HO  H1  CT  
H1  H1  OH  HO  H1  CT  H1  H1  OH  HO  H1  CT  H1  H1  OH  HO  H1  CT  H1  H1  
OH  HO  H1  CT  H1  H1  OH  HO  H1  CT  H1  H1  OH  HO  H1  CT  H1  H1  OH  HO  
H1  CT  H1  H1  OH  HO  H1  CT  H1  H1  OH  HO  H1  CT  H1  H1  OH  HO  H1  CT  
H1  H1  OH  HO  H1  CT  H1  H1  OH  HO  H1  CT  H1  H1  OH  HO  H1  CT  H1  H1  
OH  HO  H1  CT  H1  H1  OH  HO  H1  CT  H1  H1  OH  HO  H1  CT  H1  H1  OH  HO  
H1  CT  H1  H1  OH  HO  H1  CT  H1  H1  OH  HO  H1  CT  H1  H1  OH  HO  H1  CT  
H1  H1  OH  HO  H1  CT  H1  H1  OH  HO  H1  CT  H1  H1  OH  HO  H1  CT  H1  H1  
OH  HO  H1  CT  H1  H1  OH  HO  H1  CT  H1  H1  OH  HO  H1  CT  H1  H1  OH  HO  
H1  CT  H1  H1  OH  HO  H1  CT  H1  H1  OH  HO  H1  CT  H1  H1  OH  HO  H1  CT  
H1  H1  OH  HO  H1  CT  H1  H1  OH  HO  H1  CT  H1  H1  OH  HO  H1  CT  H1  H1  
OH  HO  H1  CT  H1  H1  OH  HO  H1  CT  H1  H1  OH  HO  H1  CT  H1  H1  OH  HO  
H1  CT  H1  H1  OH  HO  H1  CT  H1  H1  OH  HO  H1  CT  H1  H1  OH  HO  H1  CT  
H1  H1  OH  HO  H1  CT  H1  H1  OH  HO  H1  CT  H1  H1  OH  HO  H1  CT  H1  H1  
OH  HO  H1  CT  H1  H1  OH  HO  H1  CT  H1  H1  OH  HO  H1  CT  H1  H1  OH  HO  
H1  CT  H1  H1  OH  HO  H1  CT  H1  H1  OH  HO  H1  CT  H1  H1  OH  HO  H1  CT  
H1  H1  OH  HO  H1  CT  H1  H1  OH  HO  H1  CT  H1  H1  OH  HO  H1  CT  H1  H1  
OH  HO  H1  CT  H1  H1  OH  HO  H1  CT  H1  H1  OH  HO  H1  CT  H1  H1  OH  HO  
H1  CT  H1  H1  OH  HO  H1  CT  H1  H1  OH  HO  H1  CT  H1  H1  OH  HO  H1  CT  
H1  H1  OH  HO  H1  CT  H1  H1  OH  HO  H1  CT  H1  H1  OH  HO  H1  CT  H1  H1  
OH  HO  H1  CT  H1  H1  OH  HO  H1  CT  H1  H1  OH  HO  H1  CT  H1  H1  OH  HO  
H1  CT  H1  H1  OH  HO  H1  CT  H1  H1  OH  HO  H1  CT  H1  H1  OH  HO  H1  CT  
H1  H1  OH  HO  H1  CT  H1  H1  OH  HO  H1  CT  H1  H1  OH  HO  H1  CT  H1  H1  
OH  HO  H1  CT  H1  H1  OH  HO  H1  CT  H1  H1  OH  HO  H1  CT  H1  H1  OH  HO  
H1  CT  H1  H1  OH  HO  H1  CT  H1  H1  OH  HO  H1  CT  H1  H1  OH  HO  H1  CT  
H1  H1  OH  HO  H1  CT  H1  H1  OH  HO  H1  CT  H1  H1  OH  HO  H1  CT  H1  H1  
OH  HO  H1  CT  H1  H1  OH  HO  H1  CT  H1  H1  OH  HO  H1  CT  H1  H1  OH  HO  
H1  CT  H1  H1  OH  HO  H1  CT  H1  H1  OH  HO  H1  CT  H1  H1  OH  HO  H1  CT  
H1  H1  OH  HO  H1  CT  H1  H1  OH  HO  H1  CT  H1  H1  OH  HO  H1  CT  H1  H1  
OH  HO  H1  CT  H1  H1  OH  HO  H1  CT  H1  H1  OH  HO  H1  CT  H1  H1  OH  HO  
H1  CT  H1  H1  OH  HO  H1  CT  H1  H1  OH  HO  H1  CT  H1  H1  OH  HO  H1  CT  
H1  H1  OH  HO  H1  CT  H1  H1  OH  HO  H1  CT  H1  H1  OH  HO  H1  CT  H1  H1  
OH  HO  H1  CT  H1  H1  OH  HO  H1  CT  H1  H1  OH  HO  H1  CT  H1  H1  OH  HO  
H1  CT  H1  H1  OH  HO  H1  CT  H1  H1  OH  HO  H1  CT  H1  H1  OH  HO  H1  CT  
H1  H1  OH  HO  H1  CT  H1  H1  OH  HO  H1  CT  H1  H1  OH  HO  H1  CT  H1  H1  
OH  HO  H1  CT  H1  H1  OH  HO  H1  CT  H1  H1  OH  HO  H1  CT  H1  H1  OH  HO  
H1  CT  H1  H1  OH  HO  H1  CT  H1  H1  OH  HO  H1  CT  H1  H1  OH  HO  H1  CT  
H1  H1  OH  HO  H1  CT  H1  H1  OH  HO  H1  CT  H1  H1  OH  HO  H1  CT  H1  H1  
OH  HO  H1  CT  H1  H1  OH  HO  H1  CT  H1  H1  OH  HO  H1  CT  H1  H1  OH  HO  
H1  CT  H1  H1  OH  HO  H1  CT  H1  H1  OH  HO  H1  CT  H1  H1  OH  HO  H1  CT  
H1  H1  OH  HO  H1  CT  H1  H1  OH  HO  H1  CT  H1  H1  OH  HO  H1  CT  H1  H1  
OH  HO  H1  CT  H1  H1  OH  HO  H1  CT  H1  H1  OH  HO  H1  CT  H1  H1  OH  HO  
H1  CT  H1  H1  OH  HO  H1  CT  H1  H1  OH  HO  H1  CT  H1  H1  OH  HO  H1  CT  
H1  H1  OH  HO  H1  CT  H1  H1  OH  HO  H1  CT  H1  H1  OH  HO  H1  CT  H1  H1  
OH  HO  H1  CT  H1  H1  OH  HO  H1  CT  H1  H1  OH  HO  H1  CT  H1  H1  OH  HO  
H1  CT  H1  H1  OH  HO  H1  CT  H1  H1  OH  HO  H1  CT  H1  H1  OH  HO  H1  CT  
H1  H1  OH  HO  H1  CT  H1  H1  OH  HO  H1  CT  H1  H1  OH  HO  H1  CT  H1  H1  
OH  HO  H1  CT  H1  H1  OH  HO  H1  CT  H1  H1  OH  HO  H1  CT  H1  H1  OH  HO  
H1  CT  H1  H1  OH  HO  H1  CT  H1  H1  OH  HO  H1  CT  H1  H1  OH  HO  H1  CT  
H1  H1  OH  HO  H1  CT  H1  H1  OH  HO  H1  CT  H1  H1  OH  HO  H1  CT  H1  H1  
OH  HO  H1  CT  H1  H1  OH  HO  H1  CT  H1  H1  OH  HO  H1  CT  H1  H1  OH  HO  
H1  CT  H1  H1  OH  HO  H1  CT  H1  H1  OH  HO  H1  CT  H1  H1  OH  HO  H1  CT  
H1  H1  OH  HO  H1  CT  H1  H1  OH  HO  H1  CT  H1  H1  OH  HO  H1  CT  H1  H1  
OH  HO  H1  CT  H1  H1  OH  HO  H1  CT  H1  H1  OH  HO  H1  CT  H1  H1  OH  HO  
H1  CT  H1  H1  OH  HO  H1  CT  H1  H1  OH  HO  H1  CT  H1  H1  OH  HO  H1  CT  
H1  H1  OH  HO  H1  CT  H1  H1  OH  HO  H1  CT  H1  H1  OH  HO  H1  CT  H1  H1  
OH  HO  H1  CT  H1  H1  OH  HO  H1  CT  H1  H1  OH  HO  H1  CT  H1  H1  OH  HO  
H1  CT  H1  H1  OH  HO  H1  CT  H1  H1  OH  HO  H1  CT  H1  H1  OH  HO  H1  CT  
H1  H1  OH  HO  H1  CT  H1  H1  OH  HO  H1  CT  H1  H1  OH  HO  H1  CT  H1  H1  
OH  HO  H1  CT  H1  H1  OH  HO  H1  CT  H1  H1  OH  HO  H1  CT  H1  H1  OH  HO  
H1  CT  H1  H1  OH  HO  H1  CT  H1  H1  OH  HO  H1  CT  H1  H1  OH  HO  H1  CT  
H1  H1  OH  HO  H1  CT  H1  H1  OH  HO  H1  CT  H1  H1  OH  HO  H1  CT  H1  H1  
OH  HO  H1  CT  H1  H1  OH  HO  H1  CT  H1  H1  OH  HO  H1  CT  H1  H1  OH  HO  
H1  CT  H1  H1  OH  HO  H1  CT  H1  H1  OH  HO  H1  CT  H1  H1  OH  HO  H1  CT  
H1  H1  OH  HO  H1  CT  H1  H1  OH  HO  H1  CT  H1  H1  OH  HO  H1  CT  H1  H1  
OH  HO  H1  CT  H1  H1  OH  HO  H1  CT  H1  H1  OH  HO  H1  CT  H1  H1  OH  HO  
H1  CT  H1  H1  OH  HO  H1  CT  H1  H1  OH  HO  H1  CT  H1  H1  OH  HO  H1  CT  
H1  H1  OH  HO  H1  CT  H1  H1  OH  HO  H1  CT  H1  H1  OH  HO  H1  CT  H1  H1  
OH  HO  H1  CT  H1  H1  OH  HO  H1  CT  H1  H1  OH  HO  H1  CT  H1  H1  OH  HO  
H1  CT  H1  H1  OH  HO  H1  CT  H1  H1  OH  HO  H1  CT  H1  H1  OH  HO  H1  CT  
H1  H1  OH  HO  H1  CT  H1  H1  OH  HO  H1  CT  H1  H1  OH  HO  H1  CT  H1  H1  
OH  HO  H1  CT  H1  H1  OH  HO  H1  CT  H1  H1  OH  HO  H1  CT  H1  H1  OH  HO  
H1  CT  H1  H1  OH  HO  H1  CT  H1  H1  OH  HO  H1  CT  H1  H1  OH  HO  H1  CT  
H1  H1  OH  HO  H1  CT  H1  H1  OH  HO  H1  CT  H1  H1  OH  HO  H1  CT  H1  H1  
OH  HO  H1  CT  H1  H1  OH  HO  H1  CT  H1  H1  OH  HO  H1  CT  H1  H1  OH  HO  
H1  CT  H1  H1  OH  HO  H1  CT  H1  H1  OH  HO  H1  CT  H1  H1  OH  HO  H1  CT  
H1  H1  OH  HO  H1  CT  H1  H1  OH  HO  H1  CT  H1  H1  OH  HO  H1  CT  H1  H1  
OH  HO  H1  CT  H1  H1  OH  HO  H1  CT  H1  H1  OH  HO  H1  CT  H1  H1  OH  HO  
H1  CT  H1  H1  OH  HO  H1  CT  H1  H1  OH  HO  H1  CT  H1  H1  OH  HO  H1  CT  
H1  H1  OH  HO  H1  CT  H1  H1  OH  HO  H1  CT  H1  H1  OH  HO  H1  CT  H1  H1  
OH  HO  H1  CT  H1  H1  OH  HO  H1  CT  H1  H1  OH  HO  H1  CT  H1  H1  OH  HO  
H1  CT  H1  H1  OH  HO  H1  CT  H1  H1  OH  HO  H1  CT  H1  H1  OH  HO  H1  CT  
H1  H1  OH  HO  H1  CT  H1  H1  OH  HO  H1  CT  H1  H1  OH  HO  H1  CT  H1  H1  
OH  HO  H1  CT  H1  H1  OH  HO  H1  CT  H1  H1  OH  HO  H1  CT  H1  H1  OH  HO  
H1  CT  H1  H1  OH  HO  H1  CT  H1  H1  OH  HO  H1  CT  H1  H1  OH  HO  H1  CT  
H1  H1  OH  HO  H1  CT  H1  H1  OH  HO  H1  CT  H1  H1  OH  HO  H1  CT  H1  H1  
OH  HO  H1  CT  H1  H1  OH  HO  H1  CT  H1  H1  OH  HO  H1  CT  H1  H1  OH  HO  
H1  CT  H1  H1  OH  HO  H1  CT  H1  H1  OH  HO  H1  CT  H1  H1  OH  HO  H1  CT  
H1  H1  OH  HO  H1  CT  H1  H1  OH  HO  H1  CT  H1  H1  OH  HO  H1  CT  H1  H1  
OH  HO  H1  CT  H1  H1  OH  HO  H1  CT  H1  H1  OH  HO  H1  CT  H1  H1  OH  HO  
H1  CT  H1  H1  OH  HO  H1  CT  H1  H1  OH  HO  H1  CT  H1  H1  OH  HO  H1  CT  
H1  H1  OH  HO  H1  CT  H1  H1  OH  HO  H1  CT  H1  H1  OH  HO  H1  CT  H1  H1  
OH  HO  H1  CT  H1  H1  OH  HO  H1  CT  H1  H1  OH  HO  H1  CT  H1  H1  OH  HO  
H1  CT  H1  H1  OH  HO  H1  CT  H1  H1  OH  HO  H1  CT  H1  H1  OH  HO  H1  CT  
H1  H1  OH  HO  H1  CT  H1  H1  OH  HO  H1  CT  H1  H1  OH  HO  H1  CT  H1  H1  
OH  HO  H1  CT  H1  H1  OH  HO  H1  CT  H1  H1  OH  HO  H1  CT  H1  H1  OH  HO  
H1  CT  H1  H1  OH  HO  H1  CT  H1  H1  OH  HO  H1  CT  H1  H1  OH  HO  H1  CT  
H1  H1  OH  HO  H1  CT  H1  H1  OH  HO  H1  CT  H1  H1  OH  HO  H1  CT  H1  H1  
OH  HO  H1  CT  H1  H1  OH  HO  H1  CT  H1  H1  OH  HO  H1  CT  H1  H1  OH  HO  
H1  CT  H1  H1  OH  HO  H1  CT  H1  H1  OH  HO  H1  CT  H1  H1  OH  HO  H1  CT  
H1  H1  OH  HO  H1  CT  H1  H1  OH  HO  H1  CT  H1  H1  OH  HO  H1  CT  H1  H1  
OH  HO  H1  CT  H1  H1  OH  HO  H1  CT  H1  H1  OH  HO  H1  CT  H1  H1  OH  HO  
H1  CT  H1  H1  OH  HO  H1  CT  H1  H1  OH  HO  H1  CT  H1  H1  OH  HO  H1  CT  
H1  H1  OH  HO  H1  CT  H1  H1  OH  HO  H1  CT  H1  H1  OH  HO  H1  CT  H1  H1  
OH  HO  H1  CT  H1  H1  OH  HO  H1  CT  H1  H1  OH  HO  H1  CT  H1  H1  OH  HO  
H1  CT  H1  H1  OH  HO  H1  CT  H1  H1  OH  HO  H1  CT  H1  H1  OH  HO  H1  CT  
H1  H1  OH  HO  H1  CT  H1  H1  OH  HO  H1  CT  H1  H1  OH  HO  H1  CT  H1  H1  
OH  HO  H1  CT  H1  H1  OH  HO  H1  CT  H1  H1  OH  HO  H1  CT  H1  H1  OH  HO  
H1  CT  H1  H1  OH  HO  H1  CT  H1  H1  OH  HO  H1  CT  H1  H1  OH  HO  H1  CT  
H1  H1  OH  HO  H1  CT  H1  H1  OH  HO  H1  CT  H1  H1  OH  HO  H1  CT  H1  H1  
OH  HO  H1  CT  H1  H1  OH  HO  H1  CT  H1  H1  OH  HO  H1  CT  H1  H1  OH  HO  
H1  CT  H1  H1  OH  HO  H1  CT  H1  H1  OH  HO  H1  CT  H1  H1  OH  HO  H1  CT  
H1  H1  OH  HO  H1  CT  H1  H1  OH  HO  H1  CT  H1  H1  OH  HO  H1  CT  H1  H1  
OH  HO  H1  CT  H1  H1  OH  HO  H1  CT  H1  H1  OH  HO  H1  CT  H1  H1  OH  HO  
H1  CT  H1  H1  OH  HO  H1  CT  H1  H1  OH  HO  H1  CT  H1  H1  OH  HO  H1  CT  
H1  H1  OH  HO  H1  CT  H1  H1  OH  HO  H1  CT  H1  H1  OH  HO  H1  CT  H1  H1  
OH  HO  H1  CT  H1  H1  OH  HO  H1  CT  H1  H1  OH  HO  H1  CT  H1  H1  OH  HO  
H1  CT  H1  H1  OH  HO  H1  CT  H1  H1  OH  HO  H1  CT  H1  H1  OH  HO  H1  CT  
H1  H1  OH  HO  H1  CT  H1  H1  OH  HO  H1  CT  H1  H1  OH  HO  H1  CT  H1  H1  
OH  HO  H1  CT  H1  H1  OH  HO  H1  CT  H1  H1  OH  HO  H1  CT  H1  H1  OH  HO  
H1  CT  H1  H1  OH  HO  H1  CT  H1  H1  OH  HO  H1  CT  H1  H1  OH  HO  H1  CT  
H1  H1  OH  HO  H1  CT  H1  H1  OH  HO  H1  CT  H1  H1  OH  HO  H1  CT  H1  H1  
OH  HO  H1  CT  H1  H1  OH  HO  H1  CT  H1  H1  OH  HO  H1  CT  H1  H1  OH  HO  
H1  CT  H1  H1  OH  HO  H1  CT  H1  H1  OH  HO  H1  CT  H1  H1  OH  HO  H1  CT  
H1  H1  OH  HO  H1  CT  H1  H1  OH  HO  H1  CT  H1  H1  OH  HO  H1  CT  H1  H1  
OH  HO  H1  CT  H1  H1  OH  HO  H1  CT  H1  H1  OH  HO  H1  CT  H1  H1  OH  HO  
H1  CT  H1  H1  OH  HO  H1  CT  H1  H1  OH  HO  H1  CT  H1  H1  OH  HO  H1  CT  
H1  H1  OH  HO  H1  CT  H1  H1  OH  HO  H1  CT  H1  H1  OH  HO  H1  CT  H1  H1  
OH  HO  H1  CT  H1  H1  OH  HO  H1  CT  H1  H1  OH  HO  H1  CT  H1  H1  OH  HO  
H1  CT  H1  H1  OH  HO  H1  CT  H1  H1  OH  HO  H1  CT  H1  H1  OH  HO  H1  CT  
H1  H1  OH  HO  H1  CT  H1  H1  OH  HO  H1  CT  H1  H1  OH  HO  H1  CT  H1  H1  
OH  HO  H1  CT  H1  H1  OH  HO  H1  CT  H1  H1  OH  HO  H1  CT  H1  H1  OH  HO  
H1  CT  H1  H1  OH  HO  H1  CT  H1  H1  OH  HO  H1  CT  H1  H1  OH  HO  H1  CT  
H1  H1  OH  HO  H1  CT  H1  H1  OH  HO  H1  CT  H1  H1  OH  HO  H1  CT  H1  H1  
OH  HO  H1  CT  H1  H1  OH  HO  H1  CT  H1  H1  OH  HO  H1  CT  H1  H1  OH  HO  
H1  CT  H1  H1  OH  HO  H1  CT  H1  H1  OH  HO  H1  CT  H1  H1  OH  HO  H1  CT  
H1  H1  OH  HO  H1  CT  H1  H1  OH  HO  H1  CT  H1  H1  OH  HO  H1  CT  H1  H1  
OH  HO  H1  CT  H1  H1  OH  HO  H1  CT  H1  H1  OH  HO  H1  CT  H1  H1  OH  HO  
H1  CT  H1  H1  OH  HO  H1  CT  H1  H1  OH  HO  H1  CT  H1  H1  OH  HO  H1  CT  
H1  H1  OH  HO  H1  CT  H1  H1  OH  HO  H1  CT  H1  H1  OH  HO  H1  CT  H1  H1  
OH  HO  H1  CT  H1  H1  OH  HO  H1  CT  H1  H1  OH  HO  H1  CT  H1  H1  OH  HO  
H1  CT  H1  H1  OH  HO  H1  CT  H1  H1  OH  HO  H1  CT  H1  H1  OH  HO  H1  CT  
H1  H1  OH  HO  H1  CT  H1  H1  OH  HO  H1  CT  H1  H1  OH  HO  H1  CT  H1  H1  
OH  HO  H1  CT  H1  H1  OH  HO  H1  CT  H1  H1  OH  HO  H1  CT  H1  H1  OH  HO  
H1  CT  H1  H1  OH  HO  H1  CT  H1  H1  OH  HO  H1  CT  H1  H1  OH  HO  H1  CT  
H1  H1  OH  HO  H1  CT  H1  H1  OH  HO  H1  CT  H1  H1  OH  HO  H1  CT  H1  H1  
OH  HO  H1  CT  H1  H1  OH  HO  H1  CT  H1  H1  OH  HO  H1  CT  H1  H1  OH  HO  
H1  CT  H1  H1  OH  HO  H1  CT  H1  H1  OH  HO  H1  CT  H1  H1  OH  HO  H1  CT  
H1  H1  OH  HO  H1  CT  H1  H1  OH  HO  H1  CT  H1  H1  OH  HO  H1  CT  H1  H1  
OH  HO  H1  CT  H1  H1  OH  HO  H1  CT  H1  H1  OH  HO  H1  CT  H1  H1  OH  HO  
H1  CT  H1  H1  OH  HO  H1  CT  H1  H1  OH  HO  H1  CT  H1  H1  OH  HO  H1  CT  
H1  H1  OH  HO  H1  CT  H1  H1  OH  HO  H1  CT  H1  H1  OH  HO  H1  CT  H1  H1  
OH  HO  H1  CT  H1  H1  OH  HO  H1  CT  H1  H1  OH  HO  H1  CT  H1  H1  OH  HO  
H1  CT  H1  H1  OH  HO  H1  CT  H1  H1  OH  HO  H1  CT  H1  H1  OH  HO  H1  CT  
H1  H1  OH  HO  H1  CT  H1  H1  OH  HO  H1  CT  H1  H1  OH  HO  H1  CT  H1  H1  
OH  HO  H1  CT  H1  H1  OH  HO  H1  CT  H1  H1  OH  HO  H1  CT  H1  H1  OH  HO  
H1  CT  H1  H1  OH  HO  H1  CT  H1  H1  OH  HO  H1  CT  H1  H1  OH  HO  H1  CT  
H1  H1  OH  HO  H1  CT  H1  H1  OH  HO  H1  CT  H1  H1  OH  HO  H1  CT  H1  H1  
OH  HO  H1  CT  H1  H1  OH  HO  H1  CT  H1  H1  OH  HO  H1  CT  H1  H1  OH  HO  
H1  CT  H1  H1  OH  HO  H1  CT  H1  H1  OH  HO  H1  CT  H1  H1  OH  HO  H1  CT  
H1  H1  OH  HO  H1  CT  H1  H1  OH  HO  H1  CT  H1  H1  OH  HO  H1  CT  H1  H1  
OH  HO  H1  CT  H1  H1  OH  HO  H1  CT  H1  H1  OH  HO  H1  CT  H1  H1  OH  HO  
H1  CT  H1  H1  OH  HO  H1  CT  H1  H1  OH  HO  H1  CT  H1  H1  OH  HO  H1  CT  
H1  H1  OH  HO  H1  CT  H1  H1  OH  HO  H1  CT  H1  H1  OH  HO  H1  CT  H1  H1  
OH  HO  H1  CT  H1  H1  OH  HO  H1  CT  H1  H1  OH  HO  H1  CT  H1  H1  OH  HO  
H1  CT  H1  H1  OH  HO  H1  CT  H1  H1  OH  HO  H1  CT  H1  H1  OH  HO  H1  CT  
H1  H1  OH  HO  H1  CT  H1  H1  OH  HO  H1  CT  H1  H1  OH  HO  H1  CT  H1  H1  
OH  HO  H1  CT  H1  H1  OH  HO  H1  CT  H1  H1  OH  HO  H1  CT  H1  H1  OH  HO  
H1  CT  H1  H1  OH  HO  H1  CT  H1  H1  OH  HO  H1  CT  H1  H1  OH  HO  H1  CT  
H1  H1  OH  HO  H1  CT  H1  H1  OH  HO  H1  CT  H1  H1  OH  HO  H1  CT  H1  H1  
OH  HO  H1  CT  H1  H1  OH  HO  H1  CT  H1  H1  OH  HO  H1  CT  H1  H1  OH  HO  
H1  CT  H1  H1  OH  HO  H1  CT  H1  H1  OH  HO  H1  CT  H1  H1  OH  HO  H1  CT  
H1  H1  OH  HO  H1  CT  H1  H1  OH  HO  H1  CT  H1  H1  OH  HO  H1  CT  H1  H1  
OH  HO  H1  CT  H1  H1  OH  HO  H1  CT  H1  H1  OH  HO  H1  CT  H1  H1  OH  HO  
H1  CT  H1  H1  OH  HO  H1  CT  H1  H1  OH  HO  H1  CT  H1  H1  OH  HO  H1  CT  
H1  H1  OH  HO  H1  CT  H1  H1  OH  HO  H1  CT  H1  H1  OH  HO  H1  CT  H1  H1  
OH  HO  H1  CT  H1  H1  OH  HO  H1  CT  H1  H1  OH  HO  H1  CT  H1  H1  OH  HO  
H1  CT  H1  H1  OH  HO  H1  CT  H1  H1  OH  HO  H1  CT  H1  H1  OH  HO  H1  CT  
H1  H1  OH  HO  H1  CT  H1  H1  OH  HO  H1  CT  H1  H1  OH  HO  H1  CT  H1  H1  
OH  HO  H1  CT  H1  H1  OH  HO  H1  CT  H1  H1  OH  HO  H1  CT  H1  H1  OH  HO  
H1  CT  H1  H1  OH  HO  H1  CT  H1  H1  OH  HO  H1  CT  H1  H1  OH  HO  H1  CT  
H1  H1  OH  HO  H1  CT  H1  H1  OH  HO  H1  CT  H1  H1  OH  HO  H1  CT  H1  H1  
OH  HO  H1  CT  H1  H1  OH  HO  H1  CT  H1  H1  OH  HO  H1  CT  H1  H1  OH  HO  
H1  CT  H1  H1  OH  HO  H1  CT  H1  H1  OH  HO  H1  CT  H1  H1  OH  HO  H1  CT  
H1  H1  OH  HO  H1  CT  H1  H1  OH  HO  H1  CT  H1  H1  OH  HO  H1  CT  H1  H1  
OH  HO  H1  CT  H1  H1  OH  HO  H1  CT  H1  H1  OH  HO  H1  CT  H1  H1  OH  HO  
H1  CT  H1  H1  OH  HO  H1  CT  H1  H1  OH  HO  H1  CT  H1  H1  OH  HO  H1  CT  
H1  H1  OH  HO  H1  CT  H1  H1  OH  HO  H1  CT  H1  H1  OH  HO  H1  CT  H1  H1  
OH  HO  H1  CT  H1  H1  OH  HO  H1  CT  H1  H1  OH  HO  H1  CT  H1  H1  OH  HO  
H1  CT  H1  H1  OH  HO  H1  CT  H1  H1  OH  HO  H1  CT  H1  H1  OH  HO  H1  CT  
H1  H1  OH  HO  H1  CT  H1  H1  OH  HO  H1  CT  H1  H1  OH  HO  H1  CT  H1  H1  
OH  HO  H1  CT  H1  H1  OH  HO  H1  CT  H1  H1  OH  HO  H1  CT  H1  H1  OH  HO  
H1  CT  H1  H1  OH  HO  H1  CT  H1  H1  OH  HO  H1  CT  H1  H1  OH  HO  H1  CT  
H1  H1  OH  HO  H1  CT  H1  H1  OH  HO  H1  CT  H1  H1  OH  HO  H1  CT  H1  H1  
OH  HO  H1  CT  H1  H1  OH  HO  H1  CT  H1  H1  OH  HO  H1  CT  H1  H1  OH  HO  
H1  CT  H1  H1  OH  HO  H1  CT  H1  H1  OH  HO  H1  CT  H1  H1  OH  HO  H1  CT  
H1  H1  OH  HO  H1  CT  H1  H1  OH  HO  H1  CT  H1  H1  OH  HO  H1  CT  H1  H1  
OH  HO  H1  CT  H1  H1  OH  HO  H1  CT  H1  H1  OH  HO  H1  CT  H1  H1  OH  HO  
H1  CT  H1  H1  OH  HO  H1  CT  H1  H1  OH  HO  H1  CT  H1  H1  OH  HO  H1  CT  
H1  H1  OH  HO  H1  CT  H1  H1  OH  HO  H1  CT  H1  H1  OH  HO  H1  CT  H1  H1  
OH  HO  H1  CT  H1  H1  OH  HO  H1  CT  H1  H1  OH  HO  H1  CT  H1  H1  OH  HO  
H1  CT  H1  H1  OH  HO  H1  CT  H1  H1  OH  HO  H1  CT  H1  H1  OH  HO  H1  CT  
H1  H1  OH  HO  H1  CT  H1  H1  OH  HO  H1  CT  H1  H1  OH  HO  H1  CT  H1  H1  
OH  HO  H1  CT  H1  H1  OH  HO  H1  CT  H1  H1  OH  HO  H1  CT  H1  H1  OH  HO  
H1  CT  H1  H1  OH  HO  H1  CT  H1  H1  OH  HO  H1  CT  H1  H1  OH  HO  H1  CT  
H1  H1  OH  HO  H1  CT  H1  H1  OH  HO  H1  CT  H1  H1  OH  HO  H1  CT  H1  H1  
OH  HO  H1  CT  H1  H1  OH  HO  H1  CT  H1  H1  OH  HO  H1  CT  H1  H1  OH  HO  
H1  CT  H1  H1  OH  HO  H1  CT  H1  H1  OH  HO  H1  CT  H1  H1  OH  HO  H1  CT  
H1  H1  OH  HO  H1  CT  H1  H1  OH  HO  H1  CT  H1  H1  OH  HO  H1  CT  H1  H1  
OH  HO  H1  CT  H1  H1  OH  HO  H1  CT  H1  H1  OH  HO  H1  CT  H1  H1  OH  HO  
H1  CT  H1  H1  OH  HO  H1  CT  H1  H1  OH  HO  H1  CT  H1  H1  OH  HO  H1  CT  
H1  H1  OH  HO  H1  CT  H1  H1  OH  HO  H1  CT  H1  H1  OH  HO  H1  CT  H1  H1  
OH  HO  H1  CT  H1  H1  OH  HO  H1  CT  H1  H1  OH  HO  H1  CT  H1  H1  OH  HO  
H1  CT  H1  H1  OH  HO  H1  CT  H1  H1  OH  HO  H1  CT  H1  H1  OH  HO  H1  CT  
H1  H1  OH  HO  H1  CT  H1  H1  OH  HO  H1  CT  H1  H1  OH  HO  H1  CT  H1  H1  
OH  HO  H1  CT  H1  H1  OH  HO  H1  CT  H1  H1  OH  HO  H1  CT  H1  H1  OH  HO  
H1  CT  H1  H1  OH  HO  H1  CT  H1  H1  OH  HO  H1  CT  H1  H1  OH  HO  H1  CT  
H1  H1  OH  HO  H1  CT  H1  H1  OH  HO  H1  CT  H1  H1  OH  HO  H1  CT  H1  H1  
OH  HO  H1  CT  H1  H1  OH  HO  H1  CT  H1  H1  OH  HO  H1  CT  H1  H1  OH  HO  
H1  CT  H1  H1  OH  HO  H1  CT  H1  H1  OH  HO  H1  CT  H1  H1  OH  HO  H1  CT  
H1  H1  OH  HO  H1  CT  H1  H1  OH  HO  H1  CT  H1  H1  OH  HO  H1  CT  H1  H1  
OH  HO  H1  CT  H1  H1  OH  HO  H1  CT  H1  H1  OH  HO  H1  CT  H1  H1  OH  HO  
H1  CT  H1  H1  OH  HO  H1  CT  H1  H1  OH  HO  H1  CT  H1  H1  OH  HO  H1  CT  
H1  H1  OH  HO  H1  CT  H1  H1  OH  HO  H1  CT  H1  H1  OH  HO  H1  CT  H1  H1  
OH  HO  H1  CT  H1  H1  OH  HO  H1  CT  H1  H1  OH  HO  H1  CT  H1  H1  OH  HO  
H1  CT  H1  H1  OH  HO  H1  CT  H1  H1  OH  HO  H1  CT  H1  H1  OH  HO  H1  CT  
H1  H1  OH  HO  H1  CT  H1  H1  OH  HO  H1  CT  H1  H1  OH  HO  H1  CT  H1  H1  
OH  HO  H1  CT  H1  H1  OH  HO  H1  CT  H1  H1  OH  HO  H1  CT  H1  H1  OH  HO  
H1  CT  H1  H1  OH  HO  H1  CT  H1  H1  OH  HO  H1  CT  H1  H1  OH  HO  H1  CT  
H1  H1  OH  HO  H1  CT  H1  H1  OH  HO  H1  CT  H1  H1  OH  HO  H1  CT  H1  H1  
OH  HO  H1  CT  H1  H1  OH  HO  H1  CT  H1  H1  OH  HO  H1  CT  H1  H1  OH  HO  
H1  CT  H1  H1  OH  HO  H1  CT  H1  H1  OH  HO  H1  CT  H1  H1  OH  HO  H1  CT  
H1  H1  OH  HO  H1  CT  H1  H1  OH  HO  H1  CT  H1  H1  OH  HO  H1  CT  H1  H1  
OH  HO  H1  CT  H1  H1  OH  HO  H1  CT  H1  H1  OH  HO  H1  CT  H1  H1  OH  HO  
H1  CT  H1  H1  OH  HO  H1  CT  H1  H1  OH  HO  H1  CT  H1  H1  OH  HO  H1  CT  
H1  H1  OH  HO  H1  CT  H1  H1  OH  HO  H1  CT  H1  H1  OH  HO  H1  CT  H1  H1  
OH  HO  H1  CT  H1  H1  OH  HO  H1  CT  H1  H1  OH  HO  H1  CT  H1  H1  OH  HO  
H1  CT  H1  H1  OH  HO  H1  CT  H1  H1  OH  HO  H1  CT  H1  H1  OH  HO  H1  CT  
H1  H1  OH  HO  H1  CT  H1  H1  OH  HO  H1  CT  H1  H1  OH  HO  H1  CT  H1  H1  
OH  HO  H1  CT  H1  H1  OH  HO  H1  CT  H1  H1  OH  HO  H1  CT  H1  H1  OH  HO  
H1  CT  H1  H1  OH  HO  H1  CT  H1  H1  OH  HO  H1  CT  H1  H1  OH  HO  H1  CT  
H1  H1  OH  HO  H1  CT  H1  H1  OH  HO  H1  CT  H1  H1  OH  HO  H1  CT  H1  H1  
OH  HO  H1  CT  H1  H1  OH  HO  H1  CT  H1  H1  OH  HO  H1  CT  H1  H1  OH  HO  
H1  CT  H1  H1  OH  HO  H1  CT  H1  H1  OH  HO  H1  CT  H1  H1  OH  HO  H1  CT  
H1  H1  OH  HO  H1  CT  H1  H1  OH  HO  H1  CT  H1  H1  OH  HO  H1  CT  H1  H1  
OH  HO  H1  CT  H1  H1  OH  HO  H1  CT  H1  H1  OH  HO  H1  CT  H1  H1  OH  HO  
H1  CT  H1  H1  OH  HO  H1  CT  H1  H1  OH  HO  
%FLAG TREE_CHAIN_CLASSIFICATION                                                 
%FORMAT(20a4)                                                                   
M   E   M   E   M   E   3   E   E   3   E   E   E   M   E   M   3   E   E   E   
M   E   E   M   E   M   3   E   E   E   M   E   3   E   E   3   E   3   E   E   
E   3   E   E   E   M   E   M   E   M   E   3   E   3   E   E   E   3   E   E   
E   M   E   M   3   E   E   E   M   E   3   E   E   3   E   3   E   E   E   3   
E   E   E   M   E   M   E   3   E   E   E   M   E   M   E   M   E   M   E   3   
E   E   E   M   E   M   3   E   E   E   M   E   3   E   E   3   E   3   E   E   
E   3   E   E   E   M   E   M   3   E   E   E   M   E   3   E   E   3   E   3   
E   E   E   3   E   E   E   M   E   M   3   E   E   E   M   E   3   E   S   E   
B   E   B   E   3   E   E   E   3   E   E   3   E   3   E   E   E   M   E   M   
3   E   E   E   M   E   3   E   3   E   E   E   3   E   E   E   M   M   E   E   
M   E   M   M   E   E   M   E   M   M   E   E   M   E   M   M   E   E   M   E   
M   M   E   E   M   E   M   M   E   E   M   E   M   M   E   E   M   E   M   M   
E   E   M   E   M   M   E   E   M   E   M   M   E   E   M   E   M   M   E   E   
M   E   M   M   E   E   M   E   M   M   E   E   M   E   M   M   E   E   M   E   
M   M   E   E   M   E   M   M   E   E   M   E   M   M   E   E   M   E   M   M   
E   E   M   E   M   M   E   E   M   E   M   M   E   E   M   E   M   M   E   E   
M   E   M   M   E   E   M   E   M   M   E   E   M   E   M   M   E   E   M   E   
M   M   E   E   M   E   M   M   E   E   M   E   M   M   E   E   M   E   M   M   
E   E   M   E   M   M   E   E   M   E   M   M   E   E   M   E   M   M   E   E   
M   E   M   M   E   E   M   E   M   M   E   E   M   E   M   M   E   E   M   E   
M   M   E   E   M   E   M   M   E   E   M   E   M   M   E   E   M   E   M   M   
E   E   M   E   M   M   E   E   M   E   M   M   E   E   M   E   M   M   E   E   
M   E   M   M   E   E   M   E   M   M   E   E   M   E   M   M   E   E   M   E   
M   M   E   E   M   E   M   M   E   E   M   E   M   M   E   E   M   E   M   M   
E   E   M   E   M   M   E   E   M   E   M   M   E   E   M   E   M   M   E   E   
M   E   M   M   E   E   M   E   M   M   E   E   M   E   M   M   E   E   M   E   
M   M   E   E   M   E   M   M   E   E   M   E   M   M   E   E   M   E   M   M   
E   E   M   E   M   M   E   E   M   E   M   M   E   E   M   E   M   M   E   E   
M   E   M   M   E   E   M   E   M   M   E   E   M   E   M   M   E   E   M   E   
M   M   E   E   M   E   M   M   E   E   M   E   M   M   E   E   M   E   M   M   
E   E   M   E   M   M   E   E   M   E   M   M   E   E   M   E   M   M   E   E   
M   E   M   M   E   E   M   E   M   M   E   E   M   E   M   M   E   E   M   E   
M   M   E   E   M   E   M   M   E   E   M   E   M   M   E   E   M   E   M   M   
E   E   M   E   M   M   E   E   M   E   M   M   E   E   M   E   M   M   E   E   
M   E   M   M   E   E   M   E   M   M   E   E   M   E   M   M   E   E   M   E   
M   M   E   E   M   E   M   M   E   E   M   E   M   M   E   E   M   E   M   M   
E   E   M   E   M   M   E   E   M   E   M   M   E   E   M   E   M   M   E   E   
M   E   M   M   E   E   M   E   M   M   E   E   M   E   M   M   E   E   M   E   
M   M   E   E   M   E   M   M   E   E   M   E   M   M   E   E   M   E   M   M   
E   E   M   E   M   M   E   E   M   E   M   M   E   E   M   E   M   M   E   E   
M   E   M   M   E   E   M   E   M   M   E   E   M   E   M   M   E   E   M   E   
M   M   E   E   M   E   M   M   E   E   M   E   M   M   E   E   M   E   M   M   
E   E   M   E   M   M   E   E   M   E   M   M   E   E   M   E   M   M   E   E   
M   E   M   M   E   E   M   E   M   M   E   E   M   E   M   M   E   E   M   E   
M   M   E   E   M   E   M   M   E   E   M   E   M   M   E   E   M   E   M   M   
E   E   M   E   M   M   E   E   M   E   M   M   E   E   M   E   M   M   E   E   
M   E   M   M   E   E   M   E   M   M   E   E   M   E   M   M   E   E   M   E   
M   M   E   E   M   E   M   M   E   E   M   E   M   M   E   E   M   E   M   M   
E   E   M   E   M   M   E   E   M   E   M   M   E   E   M   E   M   M   E   E   
M   E   M   M   E   E   M   E   M   M   E   E   M   E   M   M   E   E   M   E   
M   M   E   E   M   E   M   M   E   E   M   E   M   M   E   E   M   E   M   M   
E   E   M   E   M   M   E   E   M   E   M   M   E   E   M   E   M   M   E   E   
M   E   M   M   E   E   M   E   M   M   E   E   M   E   M   M   E   E   M   E   
M   M   E   E   M   E   M   M   E   E   M   E   M   M   E   E   M   E   M   M   
E   E   M   E   M   M   E   E   M   E   M   M   E   E   M   E   M   M   E   E   
M   E   M   M   E   E   M   E   M   M   E   E   M   E   M   M   E   E   M   E   
M   M   E   E   M   E   M   M   E   E   M   E   M   M   E   E   M   E   M   M   
E   E   M   E   M   M   E   E   M   E   M   M   E   E   M   E   M   M   E   E   
M   E   M   M   E   E   M   E   M   M   E   E   M   E   M   M   E   E   M   E   
M   M   E   E   M   E   M   M   E   E   M   E   M   M   E   E   M   E   M   M   
E   E   M   E   M   M   E   E   M   E   M   M   E   E   M   E   M   M   E   E   
M   E   M   M   E   E   M   E   M   M   E   E   M   E   M   M   E   E   M   E   
M   M   E   E   M   E   M   M   E   E   M   E   M   M   E   E   M   E   M   M   
E   E   M   E   M   M   E   E   M   E   M   M   E   E   M   E   M   M   E   E   
M   E   M   M   E   E   M   E   M   M   E   E   M   E   M   M   E   E   M   E   
M   M   E   E   M   E   M   M   E   E   M   E   M   M   E   E   M   E   M   M   
E   E   M   E   M   M   E   E   M   E   M   M   E   E   M   E   M   M   E   E   
M   E   M   M   E   E   M   E   M   M   E   E   M   E   M   M   E   E   M   E   
M   M   E   E   M   E   M   M   E   E   M   E   M   M   E   E   M   E   M   M   
E   E   M   E   M   M   E   E   M   E   M   M   E   E   M   E   M   M   E   E   
M   E   M   M   E   E   M   E   M   M   E   E   M   E   M   M   E   E   M   E   
M   M   E   E   M   E   M   M   E   E   M   E   M   M   E   E   M   E   M   M   
E   E   M   E   M   M   E   E   M   E   M   M   E   E   M   E   M   M   E   E   
M   E   M   M   E   E   M   E   M   M   E   E   M   E   M   M   E   E   M   E   
M   M   E   E   M   E   M   M   E   E   M   E   M   M   E   E   M   E   M   M   
E   E   M   E   M   M   E   E   M   E   M   M   E   E   M   E   M   M   E   E   
M   E   M   M   E   E   M   E   M   M   E   E   M   E   M   M   E   E   M   E   
M   M   E   E   M   E   M   M   E   E   M   E   M   M   E   E   M   E   M   M   
E   E   M   E   M   M   E   E   M   E   M   M   E   E   M   E   M   M   E   E   
M   E   M   M   E   E   M   E   M   M   E   E   M   E   M   M   E   E   M   E   
M   M   E   E   M   E   M   M   E   E   M   E   M   M   E   E   M   E   M   M   
E   E   M   E   M   M   E   E   M   E   M   M   E   E   M   E   M   M   E   E   
M   E   M   M   E   E   M   E   M   M   E   E   M   E   M   M   E   E   M   E   
M   M   E   E   M   E   M   M   E   E   M   E   M   M   E   E   M   E   M   M   
E   E   M   E   M   M   E   E   M   E   M   M   E   E   M   E   M   M   E   E   
M   E   M   M   E   E   M   E   M   M   E   E   M   E   M   M   E   E   M   E   
M   M   E   E   M   E   M   M   E   E   M   E   M   M   E   E   M   E   M   M   
E   E   M   E   M   M   E   E   M   E   M   M   E   E   M   E   M   M   E   E   
M   E   M   M   E   E   M   E   M   M   E   E   M   E   M   M   E   E   M   E   
M   M   E   E   M   E   M   M   E   E   M   E   M   M   E   E   M   E   M   M   
E   E   M   E   M   M   E   E   M   E   M   M   E   E   M   E   M   M   E   E   
M   E   M   M   E   E   M   E   M   M   E   E   M   E   M   M   E   E   M   E   
M   M   E   E   M   E   M   M   E   E   M   E   M   M   E   E   M   E   M   M   
E   E   M   E   M   M   E   E   M   E   M   M   E   E   M   E   M   M   E   E   
M   E   M   M   E   E   M   E   M   M   E   E   M   E   M   M   E   E   M   E   
M   M   E   E   M   E   M   M   E   E   M   E   M   M   E   E   M   E   M   M   
E   E   M   E   M   M   E   E   M   E   M   M   E   E   M   E   M   M   E   E   
M   E   M   M   E   E   M   E   M   M   E   E   M   E   M   M   E   E   M   E   
M   M   E   E   M   E   M   M   E   E   M   E   M   M   E   E   M   E   M   M   
E   E   M   E   M   M   E   E   M   E   M   M   E   E   M   E   M   M   E   E   
M   E   M   M   E   E   M   E   M   M   E   E   M   E   M   M   E   E   M   E   
M   M   E   E   M   E   M   M   E   E   M   E   M   M   E   E   M   E   M   M   
E   E   M   E   M   M   E   E   M   E   M   M   E   E   M   E   M   M   E   E   
M   E   M   M   E   E   M   E   M   M   E   E   M   E   M   M   E   E   M   E   
M   M   E   E   M   E   M   M   E   E   M   E   M   M   E   E   M   E   M   M   
E   E   M   E   M   M   E   E   M   E   M   M   E   E   M   E   M   M   E   E   
M   E   M   M   E   E   M   E   M   M   E   E   M   E   M   M   E   E   M   E   
M   M   E   E   M   E   M   M   E   E   M   E   M   M   E   E   M   E   M   M   
E   E   M   E   M   M   E   E   M   E   M   M   E   E   M   E   M   M   E   E   
M   E   M   M   E   E   M   E   M   M   E   E   M   E   M   M   E   E   M   E   
M   M   E   E   M   E   M   M   E   E   M   E   M   M   E   E   M   E   M   M   
E   E   M   E   M   M   E   E   M   E   M   M   E   E   M   E   M   M   E   E   
M   E   M   M   E   E   M   E   M   M   E   E   M   E   M   M   E   E   M   E   
M   M   E   E   M   E   M   M   E   E   M   E   M   M   E   E   M   E   M   M   
E   E   M   E   M   M   E   E   M   E   M   M   E   E   M   E   M   M   E   E   
M   E   M   M   E   E   M   E   M   M   E   E   M   E   M   M   E   E   M   E   
M   M   E   E   M   E   M   M   E   E   M   E   M   M   E   E   M   E   M   M   
E   E   M   E   M   M   E   E   M   E   M   M   E   E   M   E   M   M   E   E   
M   E   M   M   E   E   M   E   M   M   E   E   M   E   M   M   E   E   M   E   
M   M   E   E   M   E   M   M   E   E   M   E   M   M   E   E   M   E   M   M   
E   E   M   E   M   M   E   E   M   E   M   M   E   E   M   E   M   M   E   E   
M   E   M   M   E   E   M   E   M   M   E   E   M   E   M   M   E   E   M   E   
M   M   E   E   M   E   M   M   E   E   M   E   M   M   E   E   M   E   M   M   
E   E   M   E   M   M   E   E   M   E   M   M   E   E   M   E   M   M   E   E   
M   E   M   M   E   E   M   E   M   M   E   E   M   E   M   M   E   E   M   E   
M   M   E   E   M   E   M   M   E   E   M   E   M   M   E   E   M   E   M   M   
E   E   M   E   M   M   E   E   M   E   M   M   E   E   M   E   M   M   E   E   
M   E   M   M   E   E   M   E   M   M   E   E   M   E   M   M   E   E   M   E   
M   M   E   E   M   E   M   M   E   E   M   E   M   M   E   E   M   E   M   M   
E   E   M   E   M   M   E   E   M   E   M   M   E   E   M   E   M   M   E   E   
M   E   M   M   E   E   M   E   M   M   E   E   M   E   M   M   E   E   M   E   
M   M   E   E   M   E   M   M   E   E   M   E   M   M   E   E   M   E   M   M   
E   E   M   E   M   M   E   E   M   E   M   M   E   E   M   E   M   M   E   E   
M   E   M   M   E   E   M   E   M   M   E   E   M   E   M   M   E   E   M   E   
M   M   E   E   M   E   M   M   E   E   M   E   M   M   E   E   M   E   M   M   
E   E   M   E   M   M   E   E   M   E   M   M   E   E   M   E   M   M   E   E   
M   E   M   M   E   E   M   E   M   M   E   E   M   E   M   M   E   E   M   E   
M   M   E   E   M   E   M   M   E   E   M   E   M   M   E   E   M   E   M   M   
E   E   M   E   M   M   E   E   M   E   M   M   E   E   M   E   M   M   E   E   
M   E   M   M   E   E   M   E   M   M   E   E   M   E   M   M   E   E   M   E   
M   M   E   E   M   E   M   M   E   E   M   E   M   M   E   E   M   E   M   M   
E   E   M   E   M   M   E   E   M   E   M   M   E   E   M   E   M   M   E   E   
M   E   M   M   E   E   M   E   M   M   E   E   M   E   M   M   E   E   M   E   
M   M   E   E   M   E   M   M   E   E   M   E   M   M   E   E   M   E   M   M   
E   E   M   E   M   M   E   E   M   E   M   M   E   E   M   E   M   M   E   E   
M   E   M   M   E   E   M   E   M   M   E   E   M   E   M   M   E   E   M   E   
M   M   E   E   M   E   M   M   E   E   M   E   M   M   E   E   M   E   M   M   
E   E   M   E   M   M   E   E   M   E   M   M   E   E   M   E   M   M   E   E   
M   E   M   M   E   E   M   E   M   M   E   E   M   E   M   M   E   E   M   E   
M   M   E   E   M   E   M   M   E   E   M   E   M   M   E   E   M   E   M   M   
E   E   M   E   M   M   E   E   M   E   M   M   E   E   M   E   M   M   E   E   
M   E   M   M   E   E   M   E   M   M   E   E   M   E   M   M   E   E   M   E   
M   M   E   E   M   E   M   M   E   E   M   E   M   M   E   E   M   E   M   M   
E   E   M   E   M   M   E   E   M   E   M   M   E   E   M   E   M   M   E   E   
M   E   M   M   E   E   M   E   M   M   E   E   M   E   M   M   E   E   M   E   
M   M   E   E   M   E   M   M   E   E   M   E   M   M   E   E   M   E   M   M   
E   E   M   E   M   M   E   E   M   E   M   M   E   E   M   E   M   M   E   E   
M   E   M   M   E   E   M   E   M   M   E   E   M   E   M   M   E   E   M   E   
M   M   E   E   M   E   M   M   E   E   M   E   M   M   E   E   M   E   M   M   
E   E   M   E   M   M   E   E   M   E   M   M   E   E   M   E   M   M   E   E   
M   E   M   M   E   E   M   E   M   M   E   E   M   E   M   M   E   E   M   E   
M   M   E   E   M   E   M   M   E   E   M   E   M   M   E   E   M   E   M   M   
E   E   M   E   M   M   E   E   M   E   M   M   E   E   M   E   M   M   E   E   
M   E   M   M   E   E   M   E   M   M   E   E   M   E   M   M   E   E   M   E   
M   M   E   E   M   E   M   M   E   E   M   E   M   M   E   E   M   E   M   M   
E   E   M   E   M   M   E   E   M   E   M   M   E   E   M   E   M   M   E   E   
M   E   M   M   E   E   M   E   M   M   E   E   M   E   M   M   E   E   M   E   
M   M   E   E   M   E   M   M   E   E   M   E   M   M   E   E   M   E   M   M   
E   E   M   E   M   M   E   E   M   E   M   M   E   E   M   E   M   M   E   E   
M   E   M   M   E   E   M   E   M   M   E   E   M   E   M   M   E   E   M   E   
M   M   E   E   M   E   M   M   E   E   M   E   M   M   E   E   M   E   M   M   
E   E   M   E   M   M   E   E   M   E   M   M   E   E   M   E   M   M   E   E   
M   E   M   M   E   E   M   E   M   M   E   E   M   E   M   M   E   E   M   E   
M   M   E   E   M   E   M   M   E   E   M   E   M   M   E   E   M   E   M   M   
E   E   M   E   M   M   E   E   M   E   M   M   E   E   M   E   M   M   E   E   
M   E   M   M   E   E   M   E   M   M   E   E   M   E   M   M   E   E   M   E   
M   M   E   E   M   E   M   M   E   E   M   E   M   M   E   E   M   E   M   M   
E   E   M   E   M   M   E   E   M   E   M   M   E   E   M   E   M   M   E   E   
M   E   M   M   E   E   M   E   M   M   E   E   M   E   M   M   E   E   M   E   
M   M   E   E   M   E   M   M   E   E   M   E   M   M   E   E   M   E   M   M   
E   E   M   E   M   M   E   E   M   E   M   M   E   E   M   E   M   M   E   E   
M   E   M   M   E   E   M   E   M   M   E   E   M   E   M   M   E   E   M   E   
M   M   E   E   M   E   M   M   E   E   M   E   M   M   E   E   M   E   M   M   
E   E   M   E   M   M   E   E   M   E   M   M   E   E   M   E   M   M   E   E   
M   E   M   M   E   E   M   E   M   M   E   E   M   E   M   M   E   E   M   E   
M   M   E   E   M   E   M   M   E   E   M   E   M   M   E   E   M   E   M   M   
E   E   M   E   M   M   E   E   M   E   M   M   E   E   M   E   M   M   E   E   
M   E   M   M   E   E   M   E   M   M   E   E   M   E   M   M   E   E   M   E   
M   M   E   E   M   E   M   M   E   E   M   E   M   M   E   E   M   E   M   M   
E   E   M   E   M   M   E   E   M   E   M   M   E   E   M   E   M   M   E   E   
M   E   M   M   E   E   M   E   M   M   E   E   M   E   M   M   E   E   M   E   
M   M   E   E   M   E   M   M   E   E   M   E   M   M   E   E   M   E   M   M   
E   E   M   E   M   M   E   E   M   E   M   M   E   E   M   E   M   M   E   E   
M   E   M   M   E   E   M   E   M   M   E   E   M   E   M   M   E   E   M   E   
M   M   E   E   M   E   M   M   E   E   M   E   M   M   E   E   M   E   M   M   
E   E   M   E   M   M   E   E   M   E   M   M   E   E   M   E   M   M   E   E   
M   E   M   M   E   E   M   E   M   M   E   E   M   E   M   M   E   E   M   E   
M   M   E   E   M   E   M   M   E   E   M   E   M   M   E   E   M   E   M   M   
E   E   M   E   M   M   E   E   M   E   M   M   E   E   M   E   M   M   E   E   
M   E   M   M   E   E   M   E   M   M   E   E   M   E   M   M   E   E   M   E   
M   M   E   E   M   E   M   M   E   E   M   E   M   M   E   E   M   E   M   M   
E   E   M   E   M   M   E   E   M   E   M   M   E   E   M   E   M   M   E   E   
M   E   M   M   E   E   M   E   M   M   E   E   M   E   M   M   E   E   M   E   
M   M   E   E   M   E   M   M   E   E   M   E   M   M   E   E   M   E   M   M   
E   E   M   E   M   M   E   E   M   E   M   M   E   E   M   E   M   M   E   E   
M   E   M   M   E   E   M   E   M   M   E   E   M   E   M   M   E   E   M   E   
M   M   E   E   M   E   M   M   E   E   M   E   M   M   E   E   M   E   M   M   
E   E   M   E   M   M   E   E   M   E   M   M   E   E   M   E   M   M   E   E   
M   E   M   M   E   E   M   E   M   M   E   E   M   E   M   M   E   E   M   E   
M   M   E   E   M   E   M   M   E   E   M   E   M   M   E   E   M   E   M   M   
E   E   M   E   M   M   E   E   M   E   M   M   E   E   M   E   M   M   E   E   
M   E   M   M   E   E   M   E   M   M   E   E   M   E   M   M   E   E   M   E   
M   M   E   E   M   E   M   M   E   E   M   E   M   M   E   E   M   E   M   M   
E   E   M   E   M   M   E   E   M   E   M   M   E   E   M   E   M   M   E   E   
M   E   M   M   E   E   M   E   M   M   E   E   M   E   M   M   E   E   M   E   
M   M   E   E   M   E   M   M   E   E   M   E   M   M   E   E   M   E   M   M   
E   E   M   E   M   M   E   E   M   E   M   M   E   E   M   E   M   M   E   E   
M   E   M   M   E   E   M   E   M   M   E   E   M   E   M   M   E   E   M   E   
M   M   E   E   M   E   M   M   E   E   M   E   M   M   E   E   M   E   M   M   
E   E   M   E   M   M   E   E   M   E   M   M   E   E   M   E   M   M   E   E   
M   E   M   M   E   E   M   E   M   M   E   E   M   E   M   M   E   E   M   E   
M   M   E   E   M   E   M   M   E   E   M   E   M   M   E   E   M   E   M   M   
E   E   M   E   M   M   E   E   M   E   M   M   E   E   M   E   M   M   E   E   
M   E   M   M   E   E   M   E   M   M   E   E   M   E   M   M   E   E   M   E   
M   M   E   E   M   E   M   M   E   E   M   E   M   M   E   E   M   E   M   M   
E   E   M   E   M   M   E   E   M   E   M   M   E   E   M   E   M   M   E   E   
M   E   M   M   E   E   M   E   M   M   E   E   M   E   M   M   E   E   M   E   
M   M   E   E   M   E   M   M   E   E   M   E   M   M   E   E   M   E   M   M   
E   E   M   E   M   M   E   E   M   E   M   M   E   E   M   E   M   M   E   E   
M   E   M   M   E   E   M   E   M   M   E   E   M   E   M   M   E   E   M   E   
M   M   E   E   M   E   M   M   E   E   M   E   M   M   E   E   M   E   M   M   
E   E   M   E   M   M   E   E   M   E   M   M   E   E   M   E   M   M   E   E   
M   E   M   M   E   E   M   E   M   M   E   E   M   E   M   M   E   E   M   E   
M   M   E   E   M   E   M   M   E   E   M   E   M   M   E   E   M   E   M   M   
E   E   M   E   M   M   E   E   M   E   M   M   E   E   M   E   M   M   E   E   
M   E   M   M   E   E   M   E   M   M   E   E   M   E   M   M   E   E   M   E   
M   M   E   E   M   E   M   M   E   E   M   E   M   M   E   E   M   E   M   M   
E   E   M   E   M   M   E   E   M   E   M   M   E   E   M   E   M   M   E   E   
M   E   M   M   E   E   M   E   M   M   E   E   M   E   M   M   E   E   M   E   
M   M   E   E   M   E   M   M   E   E   M   E   M   M   E   E   M   E   M   M   
E   E   M   E   M   M   E   E   M   E   M   M   E   E   M   E   M   M   E   E   
M   E   M   M   E   E   M   E   M   M   E   E   M   E   M   M   E   E   M   E   
M   M   E   E   M   E   M   M   E   E   M   E   M   M   E   E   M   E   M   M   
E   E   M   E   M   M   E   E   M   E   M   M   E   E   M   E   M   M   E   E   
M   E   M   M   E   E   M   E   M   M   E   E   M   E   M   M   E   E   M   E   
M   M   E   E   M   E   M   M   E   E   M   E   M   M   E   E   M   E   M   M   
E   E   M   E   M   M   E   E   M   E   M   M   E   E   M   E   M   M   E   E   
M   E   M   M   E   E   M   E   M   M   E   E   M   E   M   M   E   E   M   E   
M   M   E   E   M   E   M   M   E   E   M   E   M   M   E   E   M   E   M   M   
E   E   M   E   M   M   E   E   M   E   M   M   E   E   M   E   M   M   E   E   
M   E   M   M   E   E   M   E   M   M   E   E   M   E   M   M   E   E   M   E   
M   M   E   E   M   E   M   M   E   E   M   E   M   M   E   E   M   E   M   M   
E   E   M   E   M   M   E   E   M   E   M   M   E   E   M   E   M   M   E   E   
M   E   M   M   E   E   M   E   M   M   E   E   M   E   M   M   E   E   M   E   
M   M   E   E   M   E   M   M   E   E   M   E   M   M   E   E   M   E   M   M   
E   E   M   E   M   M   E   E   M   E   M   M   E   E   M   E   M   M   E   E   
M   E   M   M   E   E   M   E   M   M   E   E   M   E   M   M   E   E   M   E   
M   M   E   E   M   E   M   M   E   E   M   E   M   M   E   E   M   E   M   M   
E   E   M   E   M   M   E   E   M   E   M   M   E   E   M   E   M   M   E   E   
M   E   M   M   E   E   M   E   M   M   E   E   M   E   M   M   E   E   M   E   
M   M   E   E   M   E   M   M   E   E   M   E   
%FLAG JOIN_ARRAY                                                                
%FORMAT(10I8)                                                                   
       0       0       0       0       0       0       0       0       0       0
       0       0       0       0       0       0       0       0       0       0
       0       0       0       0       0       0       0       0       0       0
       0       0       0       0       0       0       0       0       0       0
       0       0       0       0       0       0       0       0       0       0
       0       0       0       0       0       0       0       0       0       0
       0       0       0       0       0       0       0       0       0       0
       0       0       0       0       0       0       0       0       0       0
       0       0       0       0       0       0       0       0       0       0
       0       0       0       0       0       0       0       0       0       0
       0       0       0       0       0       0       0       0       0       0
       0       0       0       0       0       0       0       0       0       0
       0       0       0       0       0       0       0       0       0       0
       0       0       0       0       0       0       0       0       0       0
       0       0       0       0       0       0       0       0       0       0
       0       0       0       0       0       0       0       0       0       0
       0       0       0       0       0       0       0       0       0       0
       0       0       0       0       0       0       0       0       0       0
       0       0       0       0       0       0       0       0       0       0
       0       0       0       0       0       0       0       0       0       0
       0       0       0       0       0       0       0       0       0       0
       0       0       0       0       0       0       0       0       0       0
       0       0       0       0       0       0       0       0       0       0
       0       0       0       0       0       0       0       0       0       0
       0       0       0       0       0       0       0       0       0       0
       0       0       0       0       0       0       0       0       0       0
       0       0       0       0       0       0       0       0       0       0
       0       0       0       0       0       0       0       0       0       0
       0       0       0       0       0       0       0       0       0       0
       0       0       0       0       0       0       0       0       0       0
       0       0       0       0       0       0       0       0       0       0
       0       0       0       0       0       0       0       0       0       0
       0       0       0       0       0       0       0       0       0       0
       0       0       0       0       0       0       0       0       0       0
       0       0       0       0       0       0       0       0       0       0
       0       0       0       0       0       0       0       0       0       0
       0       0       0       0       0       0       0       0       0       0
       0       0       0       0       0       0       0       0       0       0
       0       0       0       0       0       0       0       0       0       0
       0       0       0       0       0       0       0       0       0       0
       0       0       0       0       0       0       0       0       0       0
       0       0       0       0       0       0       0       0       0       0
       0       0       0       0       0       0       0       0       0       0
       0       0       0       0       0       0       0       0       0       0
       0       0       0       0       0       0       0       0       0       0
       0       0       0       0       0       0       0       0       0       0
       0       0       0       0       0       0       0       0       0       0
       0       0       0       0       0       0       0       0       0       0
       0       0       0       0       0       0       0       0       0       0
       0       0       0       0       0       0       0       0       0       0
       0       0       0       0       0       0       0       0       0       0
       0       0       0       0       0       0       0       0       0       0
       0       0       0       0       0       0       0       0       0       0
       0       0       0       0       0       0       0       0       0       0
       0       0       0       0       0       0       0       0       0       0
       0       0       0       0       0       0       0       0       0       0
       0       0       0       0       0       0       0       0       0       0
       0       0       0       0       0       0       0       0       0       0
       0       0       0       0       0       0       0       0       0       0
       0       0       0       0       0       0       0       0       0       0
       0       0       0       0       0       0       0       0       0       0
       0       0       0       0       0       0       0       0       0       0
       0       0       0       0       0       0       0       0       0       0
       0       0       0       0       0       0       0       0       0       0
       0       0       0       0       0       0       0       0       0       0
       0       0       0       0       0       0       0       0       0       0
       0       0       0       0       0       0       0       0       0       0
       0       0       0       0       0       0       0       0       0       0
       0       0       0       0       0       0       0       0       0       0
       0       0       0       0       0       0       0       0       0       0
       0       0       0       0       0       0       0       0       0       0
       0       0       0       0       0       0       0       0       0       0
       0       0       0       0       0       0       0       0       0       0
       0       0       0       0       0       0       0       0       0       0
       0       0       0       0       0       0       0       0       0       0
       0       0       0       0       0       0       0       0       0       0
       0       0       0       0       0       0       0       0       0       0
       0       0       0       0       0       0       0       0       0       0
       0       0       0       0       0       0       0       0       0       0
       0       0       0       0       0       0       0       0       0       0
       0       0       0       0       0       0       0       0       0       0
       0       0       0       0       0       0       0       0       0       0
       0       0       0       0       0       0       0       0       0       0
       0       0       0       0       0       0       0       0       0       0
       0       0       0       0       0       0       0       0       0       0
       0       0       0       0       0       0       0       0       0       0
       0       0       0       0       0       0       0       0       0       0
       0       0       0       0       0       0       0       0       0       0
       0       0       0       0       0       0       0       0       0       0
       0       0       0       0       0       0       0       0       0       0
       0       0       0       0       0       0       0       0       0       0
       0       0       0       0       0       0       0       0       0       0
       0       0       0       0       0       0       0       0       0       0
       0       0       0       0       0       0       0       0       0       0
       0       0       0       0       0       0       0       0       0       0
       0       0       0       0       0       0       0       0       0       0
       0       0       0       0       0       0       0       0       0       0
       0       0       0       0       0       0       0       0       0       0
       0       0       0       0       0       0       0       0       0       0
       0       0       0       0       0       0       0       0       0       0
       0       0       0       0       0       0       0       0       0       0
       0       0       0       0       0       0       0       0       0       0
       0       0       0       0       0       0       0       0       0       0
       0       0       0       0       0       0       0       0       0       0
       0       0       0       0       0       0       0       0       0       0
       0       0       0       0       0       0       0       0       0       0
       0       0       0       0       0       0       0       0       0       0
       0       0       0       0       0       0       0       0       0       0
       0       0       0       0       0       0       0       0       0       0
       0       0       0       0       0       0       0       0       0       0
       0       0       0       0       0       0       0       0       0       0
       0       0       0       0       0       0       0       0       0       0
       0       0       0       0       0       0       0       0       0       0
       0       0       0       0       0       0       0       0       0       0
       0       0       0       0       0       0       0       0       0       0
       0       0       0       0       0       0       0       0       0       0
       0       0       0       0       0       0       0       0       0       0
       0       0       0       0       0       0       0       0       0       0
       0       0       0       0       0       0       0       0       0       0
       0       0       0       0       0       0       0       0       0       0
       0       0       0       0       0       0       0       0       0       0
       0       0       0       0       0       0       0       0       0       0
       0       0       0       0       0       0       0       0       0       0
       0       0       0       0       0       0       0       0       0       0
       0       0       0       0       0       0       0       0       0       0
       0       0       0       0       0       0       0       0       0       0
       0       0       0       0       0       0       0       0       0       0
       0       0       0       0       0       0       0       0       0       0
       0       0       0       0       0       0       0       0       0       0
       0       0       0       0       0       0       0       0       0       0
       0       0       0       0       0       0       0       0       0       0
       0       0       0       0       0       0       0       0       0       0
       0       0       0       0       0       0       0       0       0       0
       0       0       0       0       0       0       0       0       0       0
       0       0       0       0       0       0       0       0       0       0
       0       0       0       0       0       0       0       0       0       0
       0       0       0       0       0       0       0       0       0       0
       0       0       0       0       0       0       0       0       0       0
       0       0       0       0       0       0       0       0       0       0
       0       0       0       0       0       0       0       0       0       0
       0       0       0       0       0       0       0       0       0       0
       0       0       0       0       0       0       0       0       0       0
       0       0       0       0       0       0       0       0       0       0
       0       0       0       0       0       0       0       0       0       0
       0       0       0       0       0       0       0       0       0       0
       0       0       0       0       0       0       0       0       0       0
       0       0       0       0       0       0       0       0       0       0
       0       0       0       0       0       0       0       0       0       0
       0       0       0       0       0       0       0       0       0       0
       0       0       0       0       0       0       0       0       0       0
       0       0       0       0       0       0       0       0       0       0
       0       0       0       0       0       0       0       0       0       0
       0       0       0       0       0       0       0       0       0       0
       0       0       0       0       0       0       0       0       0       0
       0       0       0       0       0       0       0       0       0       0
       0       0       0       0       0       0       0       0       0       0
       0       0       0       0       0       0       0       0       0       0
       0       0       0       0       0       0       0       0       0       0
       0       0       0       0       0       0       0       0       0       0
       0       0       0       0       0       0       0       0       0       0
       0       0       0       0       0       0       0       0       0       0
       0       0       0       0       0       0       0       0       0       0
       0       0       0       0       0       0       0       0       0       0
       0       0       0       0       0       0       0       0       0       0
       0       0       0       0       0       0       0       0       0       0
       0       0       0       0       0       0       0       0       0       0
       0       0       0       0       0       0       0       0       0       0
       0       0       0       0       0       0       0       0       0       0
       0       0       0       0       0       0       0       0       0       0
       0       0       0       0       0       0       0       0       0       0
       0       0       0       0       0       0       0       0       0       0
       0       0       0       0       0       0       0       0       0       0
       0       0       0       0       0       0       0       0       0       0
       0       0       0       0       0       0       0       0       0       0
       0       0       0       0       0       0       0       0       0       0
       0       0       0       0       0       0       0       0       0       0
       0       0       0       0       0       0       0       0       0       0
       0       0       0       0       0       0       0       0       0       0
       0       0       0       0       0       0       0       0       0       0
       0       0       0       0       0       0       0       0       0       0
       0       0       0       0       0       0       0       0       0       0
       0       0       0       0       0       0       0       0       0       0
       0       0       0       0       0       0       0       0       0       0
       0       0       0       0       0       0       0       0       0       0
       0       0       0       0       0       0       0       0       0       0
       0       0       0       0       0       0       0       0       0       0
       0       0       0       0       0       0       0       0       0       0
       0       0       0       0       0       0       0       0       0       0
       0       0       0       0       0       0       0       0       0       0
       0       0       0       0       0       0       0       0       0       0
       0       0       0       0       0       0       0       0       0       0
       0       0       0       0       0       0       0       0       0       0
       0       0       0       0       0       0       0       0       0       0
       0       0       0       0       0       0       0       0       0       0
       0       0       0       0       0       0       0       0       0       0
       0       0       0       0       0       0       0       0       0       0
       0       0       0       0       0       0       0       0       0       0
       0       0       0       0       0       0       0       0       0       0
       0       0       0       0       0       0       0       0       0       0
       0       0       0       0       0       0       0       0       0       0
       0       0       0       0       0       0       0       0       0       0
       0       0       0       0       0       0       0       0       0       0
       0       0       0       0       0       0       0       0       0       0
       0       0       0       0       0       0       0       0       0       0
       0       0       0       0       0       0       0       0       0       0
       0       0       0       0       0       0       0       0       0       0
       0       0       0       0       0       0       0       0       0       0
       0       0       0       0       0       0       0       0       0       0
       0       0       0       0       0       0       0       0       0       0
       0       0       0       0       0       0       0       0       0       0
       0       0       0       0       0       0       0       0       0       0
       0       0       0       0       0       0       0       0       0       0
       0       0       0       0       0       0       0       0       0       0
       0       0       0       0       0       0       0       0       0       0
       0       0       0       0       0       0       0       0       0       0
       0       0       0       0       0       0       0       0       0       0
       0       0       0       0       0       0       0       0       0       0
       0       0       0       0       0       0       0       0       0       0
       0       0       0       0       0       0       0       0       0       0
       0       0       0       0       0       0       0       0       0       0
       0       0       0       0       0       0       0       0       0       0
       0       0       0       0       0       0       0       0       0       0
       0       0       0       0       0       0       0       0       0       0
       0       0       0       0       0       0       0       0       0       0
       0       0       0       0       0       0       0       0       0       0
       0       0       0       0       0       0       0       0       0       0
       0       0       0       0       0       0       0       0       0       0
       0       0       0       0       0       0       0       0       0       0
       0       0       0       0       0       0       0       0       0       0
       0       0       0       0       0       0       0       0       0       0
       0       0       0       0       0       0       0       0       0       0
       0       0       0       0       0       0       0       0       0       0
       0       0       0       0       0       0       0       0       0       0
       0       0       0       0       0       0       0       0       0       0
       0       0       0       0       0       0       0       0       0       0
       0       0       0       0       0       0       0       0       0       0
       0       0       0       0       0       0       0       0       0       0
       0       0       0       0       0       0       0       0       0       0
       0       0       0       0       0       0       0       0       0       0
       0       0       0       0       0       0       0       0       0       0
       0       0       0       0       0       0       0       0       0       0
       0       0       0       0       0       0       0       0       0       0
       0       0       0       0       0       0       0       0       0       0
       0       0       0       0       0       0       0       0       0       0
       0       0       0       0       0       0       0       0       0       0
       0       0       0       0       0       0       0       0       0       0
       0       0       0       0       0       0       0       0       0       0
       0       0       0       0       0       0       0       0       0       0
       0       0       0       0       0       0       0       0       0       0
       0       0       0       0       0       0       0       0       0       0
       0       0       0       0       0       0       0       0       0       0
       0       0       0       0       0       0       0       0       0       0
       0       0       0       0       0       0       0       0       0       0
       0       0       0       0       0       0       0       0       0       0
       0       0       0       0       0       0       0       0       0       0
       0       0       0       0       0       0       0       0       0       0
       0       0       0       0       0       0       0       0       0       0
       0       0       0       0       0       0       0       0       0       0
       0       0       0       0       0       0       0       0       0       0
       0       0       0       0       0       0       0       0       0       0
       0       0       0       0       0       0       0       0       0       0
       0       0       0       0       0       0       0       0       0       0
       0       0       0       0       0       0       0       0       0       0
       0       0       0       0       0       0       0       0       0       0
       0       0       0       0       0       0       0       0       0       0
       0       0       0       0       0       0       0       0       0       0
       0       0       0       0       0       0       0       0       0       0
       0       0       0       0       0       0       0       0       0       0
       0       0       0       0       0       0       0       0       0       0
       0       0       0       0       0       0       0       0       0       0
       0       0       0       0       0       0       0       0       0       0
       0       0       0       0       0       0       0       0       0       0
       0       0       0       0       0       0       0       0       0       0
       0       0       0       0       0       0       0       0       0       0
       0       0       0       0       0       0       0       0       0       0
       0       0       0       0       0       0       0       0       0       0
       0       0       0       0       0       0       0       0       0       0
       0       0       0       0       0       0       0       0       0       0
       0       0       0       0       0       0       0       0       0       0
       0       0       0       0       0       0       0       0       0       0
       0       0       0       0       0       0       0       0       0       0
       0       0       0       0       0       0       0       0       0       0
       0       0       0       0       0       0       0       0       0       0
       0       0       0       0       0       0       0       0       0       0
       0       0       0       0       0       0       0       0       0       0
       0       0       0       0       0       0       0       0       0       0
       0       0       0       0       0       0       0       0       0       0
       0       0       0       0       0       0       0       0       0       0
       0       0       0       0       0       0       0       0       0       0
       0       0       0       0       0       0       0       0       0       0
       0       0       0       0       0       0       0       0       0       0
       0       0       0       0       0       0       0       0       0       0
       0       0       0       0       0       0       0       0       0       0
       0       0       0       0       0       0       0       0       0       0
       0       0       0       0       0       0       0       0       0       0
       0       0       0       0       0       0       0       0       0       0
       0       0       0       0       0       0       0       0       0       0
       0       0       0       0       0       0       0       0       0       0
       0       0       0       0       0       0       0       0       0       0
       0       0       0       0       0       0       0       0       0       0
       0       0       0       0       0       0       0       0       0       0
       0       0       0       0       0       0       0       0       0       0
       0       0       0       0       0       0       0       0       0       0
       0       0       0       0       0       0       0       0       0       0
       0       0       0       0       0       0       0       0       0       0
       0       0       0       0       0       0       0       0       0       0
       0       0       0       0       0       0       0       0       0       0
       0       0       0       0       0       0       0       0       0       0
       0       0       0       0       0       0       0       0       0       0
       0       0       0       0       0       0       0       0       0       0
       0       0       0       0       0       0       0       0       0       0
       0       0       0       0       0       0       0       0       0       0
       0       0       0       0       0       0       0       0       0       0
       0       0       0       0       0       0       0       0       0       0
       0       0       0       0       0       0       0       0       0       0
       0       0       0       0       0       0       0       0       0       0
       0       0       0       0       0       0       0       0       0       0
       0       0       0       0       0       0       0       0       0       0
       0       0       0       0       0       0       0       0       0       0
       0       0       0       0       0       0       0       0       0       0
       0       0       0       0       0       0       0       0       0       0
       0       0       0       0       0       0       0       0       0       0
       0       0       0       0       0       0       0       0       0       0
       0       0       0       0       0       0       0       0       0       0
       0       0       0       0       0       0       0       0       0       0
       0       0       0       0       0       0       0       0       0       0
       0       0       0       0       0       0       0       0       0       0
       0       0       0       0       0       0       0       0       0       0
       0       0       0       0       0       0       0       0       0       0
       0       0       0       0       0       0       0       0       0       0
       0       0       0       0       0       0       0       0       0       0
       0       0       0       0       0       0       0       0       0       0
       0       0       0       0       0       0       0       0       0       0
       0       0       0       0       0       0       0       0       0       0
       0       0       0       0       0       0       0       0       0       0
       0       0       0       0       0       0       0       0       0       0
       0       0       0       0       0       0       0       0       0       0
       0       0       0       0       0       0       0       0       0       0
       0       0       0       0       0       0       0       0       0       0
       0       0       0       0       0       0       0       0       0       0
       0       0       0       0       0       0       0       0       0       0
       0       0       0       0       0       0       0       0       0       0
       0       0       0       0       0       0       0       0       0       0
       0       0       0       0       0       0       0       0       0       0
       0       0       0       0       0       0       0       0       0       0
       0       0       0       0       0       0       0       0       0       0
       0       0       0       0       0       0       0       0       0       0
       0       0       0       0       0       0       0       0       0       0
       0       0       0       0       0       0       0       0       0       0
       0       0       0       0       0       0       0       0       0       0
       0       0       0       0       0       0       0       0       0       0
       0       0       0       0       0       0       0       0       0       0
       0       0       0       0       0       0       0       0       0       0
       0       0       0       0       0       0       0       0       0       0
       0       0       0       0       0       0       0       0       0       0
       0       0       0       0       0       0       0       0       0       0
       0       0       0       0       0       0       0       0       0       0
       0       0       0       0       0       0       0       0       0       0
       0       0       0       0       0       0       0       0       0       0
       0       0       0       0       0       0       0       0       0       0
       0       0       0       0       0       0       0       0       0       0
       0       0       0       0       0       0       0       0       0       0
       0       0       0       0       0       0       0       0       0       0
       0       0       0       0       0       0       0       0       0       0
       0       0       0       0       0       0       0       0       0       0
       0       0       0       0       0       0       0       0       0       0
       0       0       0       0       0       0       0       0       0       0
       0       0       0       0       0       0       0       0       0       0
       0       0       0       0       0       0       0       0       0       0
       0       0       0       0       0       0       0       0       0       0
       0       0       0       0       0       0       0       0       0       0
       0       0       0       0       0       0       0       0       0       0
       0       0       0       0       0       0       0       0       0       0
       0       0       0       0       0       0       0       0       0       0
       0       0       0       0       0       0       0       0       0       0
       0       0       0       0       0       0       0       0       0       0
       0       0       0       0       0       0       0       0       0       0
       0       0       0       0       0       0       0       0       0       0
       0       0       0       0       0       0       0       0       0       0
       0       0       0       0       0       0       0       0       0       0
       0       0       0       0       0       0       0       0       0       0
       0       0       0       0       0       0       0       0       0       0
       0       0       0       0       0       0       0       0       0       0
       0       0       0       0       0       0       0       0       0       0
       0       0       0       0       0       0       0       0       0       0
       0       0       0       0       0       0       0       0       0       0
       0       0       0       0       0       0       0       0       0       0
       0       0       0       0       0       0       0       0       0       0
       0       0       0       0       0       0       0       0       0       0
       0       0       0       0       0       0       0       0       0       0
       0       0       0       0       0       0       0       0       0       0
       0       0       0       0       0       0       0       0       0       0
       0       0       0       0       0       0       0       0       0       0
       0       0       0       0       0       0       0       0       0       0
       0       0       0       0       0       0       0       0       0       0
       0       0       0       0       0       0       0       0       0       0
       0       0       0       0       0       0       0       0       0       0
       0       0       0       0       0       0       0       0       0       0
       0       0       0       0       0       0       0       0       0       0
       0       0       0       0       0       0       0       0       0       0
       0       0       0       0       0       0       0       0       0       0
       0       0       0       0       0       0       0       0       0       0
       0       0       0       0       0       0       0       0       0       0
       0       0       0       0       0       0       0       0       0       0
       0       0       0       0       0       0       0       0       0       0
       0       0       0       0       0       0       0       0       0       0
       0       0       0       0       0       0       0       0       0       0
       0       0       0       0       0       0       0       0       0       0
       0       0       0       0       0       0       0       0       0       0
       0       0       0       0       0       0       0       0       0       0
       0       0       0       0       0       0       0       0       0       0
       0       0       0       0       0       0       0       0       0       0
       0       0       0       0       0       0       0       0       0       0
       0       0       0       0       0       0       0       0       0       0
       0       0       0       0       0       0       0       0       0       0
       0       0       0       0       0       0       0       0       0       0
       0       0       0       0       0       0       0       0       0       0
       0       0       0       0       0       0       0       0       0       0
       0       0       0       0       0       0       0       0       0       0
       0       0       0       0       0       0       0       0       0       0
       0       0       0       0       0       0       0       0       0       0
       0       0       0       0       0       0       0       0       0       0
       0       0       0       0       0       0       0       0       0       0
       0       0       0       0       0       0       0       0       0       0
       0       0       0       0       0       0       0       0       0       0
       0       0       0       0       0       0       0       0       0       0
       0       0       0       0       0       0       0       0       0       0
       0       0       0       0       0       0       0       0       0       0
       0       0       0       0       0       0       0       0       0       0
       0       0       0       0       0       0       0       0       0       0
       0       0       0       0       0       0       0       0       0       0
       0       0       0       0       0       0       0       0       0       0
       0       0       0       0       0       0       0       0       0       0
       0       0       0       0       0       0       0       0       0       0
       0       0       0       0       0       0       0       0       0       0
       0       0       0       0       0       0       0       0       0       0
       0       0       0       0       0       0       0       0       0       0
       0       0       0       0       0       0       0       0       0       0
       0       0       0       0       0       0       0       0       0       0
       0       0       0       0       0       0       0       0       0       0
       0       0       0       0       0       0       0       0       0       0
       0       0       0       0       0       0       0       0       0       0
       0       0       0       0       0       0       0       0       0       0
       0       0       0       0       0       0       0       0       0       0
       0       0       0       0       0       0       0       0       0       0
       0       0       0       0       0       0       0       0       0       0
       0       0       0       0       0       0       0       0       0       0
       0       0       0       0       0       0       0       0       0       0
       0       0       0       0       0       0       0       0       0       0
       0       0       0       0       0       0       0       0       0       0
       0       0       0       0       0       0       0       0       0       0
       0       0       0       0       0       0       0       0       0       0
       0       0       0       0       0       0       0       0       0       0
       0       0       0       0       0       0       0       0       0       0
       0       0       0       0       0       0       0       0       0       0
       0       0       0       0       0       0       0       0       0       0
       0       0       0       0       0       0       0       0       0       0
       0       0       0       0       0       0       0       0       0       0
       0       0       0       0       0       0       0       0       0       0
       0       0       0       0       0       0       0       0       0       0
       0       0       0       0       0       0       0       0       0       0
       0       0       0       0       0       0       0       0       0       0
       0       0       0       0       0       0       0       0       0       0
       0       0       0       0       0       0       0       0       0       0
       0       0       0       0       0       0       0       0       0       0
       0       0       0       0       0       0       0       0       0       0
       0       0       0       0       0       0       0       0       0       0
       0       0       0       0       0       0       0       0       0       0
       0       0       0       0       0       0       0       0       0       0
       0       0       0       0       0       0       0       0       0       0
       0       0       0       0       0       0       0       0       0       0
       0       0       0       0       0       0       0       0       0       0
       0       0       0       0       0       0       0       0       0       0
       0       0       0       0       0       0       0       0       0       0
       0       0       0       0       0       0       0       0       0       0
       0       0       0       0       0       0       0       0       0       0
       0       0       0       0       0       0       0       0       0       0
       0       0       0       0       0       0       0       0       0       0
       0       0       0       0       0       0       0       0       0       0
       0       0       0       0       0       0       0       0       0       0
       0       0       0       0       0       0       0       0       0       0
       0       0       0       0       0       0       0       0       0       0
       0       0       0       0       0       0       0       0       0       0
       0       0       0       0       0       0       0       0       0       0
       0       0       0       0       0       0       0       0       0       0
       0       0       0       0       0       0       0       0       0       0
       0       0       0       0       0       0       0       0       0       0
       0       0       0       0       0       0       0       0       0       0
       0       0       0       0       0       0       0       0       0       0
       0       0       0       0       0       0       0       0       0       0
       0       0       0       0       0       0       0       0       0       0
       0       0       0       0       0       0       0       0       0       0
       0       0       0       0       0       0       0       0       0       0
       0       0       0       0       0       0       0       0       0       0
       0       0       0       0       0       0       0       0       0       0
       0       0       0       0       0       0       0       0       0       0
       0       0       0       0       0       0       0       0       0       0
       0       0       0       0       0       0       0       0       0       0
       0       0       0       0       0       0       0       0       0       0
       0       0       0       0       0       0       0       0       0       0
       0       0       0       0       0       0       0       0       0       0
       0       0       0       0       0       0       0       0       0       0
       0       0       0       0       0       0       0       0       0       0
       0       0       0       0       0       0       0       0       0       0
       0       0       0       0       0       0       0       0       0       0
       0       0       0       0       0       0       0       0       0       0
       0       0       0       0       0       0       0       0       0       0
       0       0       0       0       0       0       0       0       0       0
       0       0       0       0       0       0       0       0       0       0
       0       0       0       0       0       0       0       0       0       0
       0       0       0       0       0       0       0       0       0       0
       0       0       0       0       0       0       0       0       0       0
       0       0       0       0       0       0       0       0       0       0
       0       0       0       0       0       0       0       0       0       0
       0       0       0       0       0       0       0       0       0       0
       0       0       0       0       0       0       0       0       0       0
       0       0       0       0       0       0       0       0       0       0
       0       0       0       0       0       0       0       0       0       0
       0       0       0       0       0       0       0       0       0       0
       0       0       0       0       0       0       0       0       0       0
       0       0       0       0       0       0       0       0       0       0
       0       0
%FLAG IROTAT                                                                    
%FORMAT(10I8)                                                                   
       0       0       0       0       0       0       0       0       0       0
       0       0       0       0       0       0       0       0       0       0
       0       0       0       0       0       0       0       0       0       0
       0       0       0       0       0       0       0       0       0       0
       0       0       0       0       0       0       0       0       0       0
       0       0       0       0       0       0       0       0       0       0
       0       0       0       0       0       0       0       0       0       0
       0       0       0       0       0       0       0       0       0       0
       0       0       0       0       0       0       0       0       0       0
       0       0       0       0       0       0       0       0       0       0
       0       0       0       0       0       0       0       0       0       0
       0       0       0       0       0       0       0       0       0       0
       0       0       0       0       0       0       0       0       0       0
       0       0       0       0       0       0       0       0       0       0
       0       0       0       0       0       0       0       0       0       0
       0       0       0       0       0       0       0       0       0       0
       0       0       0       0       0       0       0       0       0       0
       0       0       0       0       0       0       0       0       0       0
       0       0       0       0       0       0       0       0       0       0
       0       0       0       0       0       0       0       0       0       0
       0       0       0       0       0       0       0       0       0       0
       0       0       0       0       0       0       0       0       0       0
       0       0       0       0       0       0       0       0       0       0
       0       0       0       0       0       0       0       0       0       0
       0       0       0       0       0       0       0       0       0       0
       0       0       0       0       0       0       0       0       0       0
       0       0       0       0       0       0       0       0       0       0
       0       0       0       0       0       0       0       0       0       0
       0       0       0       0       0       0       0       0       0       0
       0       0       0       0       0       0       0       0       0       0
       0       0       0       0       0       0       0       0       0       0
       0       0       0       0       0       0       0       0       0       0
       0       0       0       0       0       0       0       0       0       0
       0       0       0       0       0       0       0       0       0       0
       0       0       0       0       0       0       0       0       0       0
       0       0       0       0       0       0       0       0       0       0
       0       0       0       0       0       0       0       0       0       0
       0       0       0       0       0       0       0       0       0       0
       0       0       0       0       0       0       0       0       0       0
       0       0       0       0       0       0       0       0       0       0
       0       0       0       0       0       0       0       0       0       0
       0       0       0       0       0       0       0       0       0       0
       0       0       0       0       0       0       0       0       0       0
       0       0       0       0       0       0       0       0       0       0
       0       0       0       0       0       0       0       0       0       0
       0       0       0       0       0       0       0       0       0       0
       0       0       0       0       0       0       0       0       0       0
       0       0       0       0       0       0       0       0       0       0
       0       0       0       0       0       0       0       0       0       0
       0       0       0       0       0       0       0       0       0       0
       0       0       0       0       0       0       0       0       0       0
       0       0       0       0       0       0       0       0       0       0
       0       0       0       0       0       0       0       0       0       0
       0       0       0       0       0       0       0       0       0       0
       0       0       0       0       0       0       0       0       0       0
       0       0       0       0       0       0       0       0       0       0
       0       0       0       0       0       0       0       0       0       0
       0       0       0       0       0       0       0       0       0       0
       0       0       0       0       0       0       0       0       0       0
       0       0       0       0       0       0       0       0       0       0
       0       0       0       0       0       0       0       0       0       0
       0       0       0       0       0       0       0       0       0       0
       0       0       0       0       0       0       0       0       0       0
       0       0       0       0       0       0       0       0       0       0
       0       0       0       0       0       0       0       0       0       0
       0       0       0       0       0       0       0       0       0       0
       0       0       0       0       0       0       0       0       0       0
       0       0       0       0       0       0       0       0       0       0
       0       0       0       0       0       0       0       0       0       0
       0       0       0       0       0       0       0       0       0       0
       0       0       0       0       0       0       0       0       0       0
       0       0       0       0       0       0       0       0       0       0
       0       0       0       0       0       0       0       0       0       0
       0       0       0       0       0       0       0       0       0       0
       0       0       0       0       0       0       0       0       0       0
       0       0       0       0       0       0       0       0       0       0
       0       0       0       0       0       0       0       0       0       0
       0       0       0       0       0       0       0       0       0       0
       0       0       0       0       0       0       0       0       0       0
       0       0       0       0       0       0       0       0       0       0
       0       0       0       0       0       0       0       0       0       0
       0       0       0       0       0       0       0       0       0       0
       0       0       0       0       0       0       0       0       0       0
       0       0       0       0       0       0       0       0       0       0
       0       0       0       0       0       0       0       0       0       0
       0       0       0       0       0       0       0       0       0       0
       0       0       0       0       0       0       0       0       0       0
       0       0       0       0       0       0       0       0       0       0
       0       0       0       0       0       0       0       0       0       0
       0       0       0       0       0       0       0       0       0       0
       0       0       0       0       0       0       0       0       0       0
       0       0       0       0       0       0       0       0       0       0
       0       0       0       0       0       0       0       0       0       0
       0       0       0       0       0       0       0       0       0       0
       0       0       0       0       0       0       0       0       0       0
       0       0       0       0       0       0       0       0       0       0
       0       0       0       0       0       0       0       0       0       0
       0       0       0       0       0       0       0       0       0       0
       0       0       0       0       0       0       0       0       0       0
       0       0       0       0       0       0       0       0       0       0
       0       0       0       0       0       0       0       0       0       0
       0       0       0       0       0       0       0       0       0       0
       0       0       0       0       0       0       0       0       0       0
       0       0       0       0       0       0       0       0       0       0
       0       0       0       0       0       0       0       0       0       0
       0       0       0       0       0       0       0       0       0       0
       0       0       0       0       0       0       0       0       0       0
       0       0       0       0       0       0       0       0       0       0
       0       0       0       0       0       0       0       0       0       0
       0       0       0       0       0       0       0       0       0       0
       0       0       0       0       0       0       0       0       0       0
       0       0       0       0       0       0       0       0       0       0
       0       0       0       0       0       0       0       0       0       0
       0       0       0       0       0       0       0       0       0       0
       0       0       0       0       0       0       0       0       0       0
       0       0       0       0       0       0       0       0       0       0
       0       0       0       0       0       0       0       0       0       0
       0       0       0       0       0       0       0       0       0       0
       0       0       0       0       0       0       0       0       0       0
       0       0       0       0       0       0       0       0       0       0
       0       0       0       0       0       0       0       0       0       0
       0       0       0       0       0       0       0       0       0       0
       0       0       0       0       0       0       0       0       0       0
       0       0       0       0       0       0       0       0       0       0
       0       0       0       0       0       0       0       0       0       0
       0       0       0       0       0       0       0       0       0       0
       0       0       0       0       0       0       0       0       0       0
       0       0       0       0       0       0       0       0       0       0
       0       0       0       0       0       0       0       0       0       0
       0       0       0       0       0       0       0       0       0       0
       0       0       0       0       0       0       0       0       0       0
       0       0       0       0       0       0       0       0       0       0
       0       0       0       0       0       0       0       0       0       0
       0       0       0       0       0       0       0       0       0       0
       0       0       0       0       0       0       0       0       0       0
       0       0       0       0       0       0       0       0       0       0
       0       0       0       0       0       0       0       0       0       0
       0       0       0       0       0       0       0       0       0       0
       0       0       0       0       0       0       0       0       0       0
       0       0       0       0       0       0       0       0       0       0
       0       0       0       0       0       0       0       0       0       0
       0       0       0       0       0       0       0       0       0       0
       0       0       0       0       0       0       0       0       0       0
       0       0       0       0       0       0       0       0       0       0
       0       0       0       0       0       0       0       0       0       0
       0       0       0       0       0       0       0       0       0       0
       0       0       0       0       0       0       0       0       0       0
       0       0       0       0       0       0       0       0       0       0
       0       0       0       0       0       0       0       0       0       0
       0       0       0       0       0       0       0       0       0       0
       0       0       0       0       0       0       0       0       0       0
       0       0       0       0       0       0       0       0       0       0
       0       0       0       0       0       0       0       0       0       0
       0       0       0       0       0       0       0       0       0       0
       0       0       0       0       0       0       0       0       0       0
       0       0       0       0       0       0       0       0       0       0
       0       0       0       0       0       0       0       0       0       0
       0       0       0       0       0       0       0       0       0       0
       0       0       0       0       0       0       0       0       0       0
       0       0       0       0       0       0       0       0       0       0
       0       0       0       0       0       0       0       0       0       0
       0       0       0       0       0       0       0       0       0       0
       0       0       0       0       0       0       0       0       0       0
       0       0       0       0       0       0       0       0       0       0
       0       0       0       0       0       0       0       0       0       0
       0       0       0       0       0       0       0       0       0       0
       0       0       0       0       0       0       0       0       0       0
       0       0       0       0       0       0       0       0       0       0
       0       0       0       0       0       0       0       0       0       0
       0       0       0       0       0       0       0       0       0       0
       0       0       0       0       0       0       0       0       0       0
       0       0       0       0       0       0       0       0       0       0
       0       0       0       0       0       0       0       0       0       0
       0       0       0       0       0       0       0       0       0       0
       0       0       0       0       0       0       0       0       0       0
       0       0       0       0       0       0       0       0       0       0
       0       0       0       0       0       0       0       0       0       0
       0       0       0       0       0       0       0       0       0       0
       0       0       0       0       0       0       0       0       0       0
       0       0       0       0       0       0       0       0       0       0
       0       0       0       0       0       0       0       0       0       0
       0       0       0       0       0       0       0       0       0       0
       0       0       0       0       0       0       0       0       0       0
       0       0       0       0       0       0       0       0       0       0
       0       0       0       0       0       0       0       0       0       0
       0       0       0       0       0       0       0       0       0       0
       0       0       0       0       0       0       0       0       0       0
       0       0       0       0       0       0       0       0       0       0
       0       0       0       0       0       0       0       0       0       0
       0       0       0       0       0       0       0       0       0       0
       0       0       0       0       0       0       0       0       0       0
       0       0       0       0       0       0       0       0       0       0
       0       0       0       0       0       0       0       0       0       0
       0       0       0       0       0       0       0       0       0       0
       0       0       0       0       0       0       0       0       0       0
       0       0       0       0       0       0       0       0       0       0
       0       0       0       0       0       0       0       0       0       0
       0       0       0       0       0       0       0       0       0       0
       0       0       0       0       0       0       0       0       0       0
       0       0       0       0       0       0       0       0       0       0
       0       0       0       0       0       0       0       0       0       0
       0       0       0       0       0       0       0       0       0       0
       0       0       0       0       0       0       0       0       0       0
       0       0       0       0       0       0       0       0       0       0
       0       0       0       0       0       0       0       0       0       0
       0       0       0       0       0       0       0       0       0       0
       0       0       0       0       0       0       0       0       0       0
       0       0       0       0       0       0       0       0       0       0
       0       0       0       0       0       0       0       0       0       0
       0       0       0       0       0       0       0       0       0       0
       0       0       0       0       0       0       0       0       0       0
       0       0       0       0       0       0       0       0       0       0
       0       0       0       0       0       0       0       0       0       0
       0       0       0       0       0       0       0       0       0       0
       0       0       0       0       0       0       0       0       0       0
       0       0       0       0       0       0       0       0       0       0
       0       0       0       0       0       0       0       0       0       0
       0       0       0       0       0       0       0       0       0       0
       0       0       0       0       0       0       0       0       0       0
       0       0       0       0       0       0       0       0       0       0
       0       0       0       0       0       0       0       0       0       0
       0       0       0       0       0       0       0       0       0       0
       0       0       0       0       0       0       0       0       0       0
       0       0       0       0       0       0       0       0       0       0
       0       0       0       0       0       0       0       0       0       0
       0       0       0       0       0       0       0       0       0       0
       0       0       0       0       0       0       0       0       0       0
       0       0       0       0       0       0       0       0       0       0
       0       0       0       0       0       0       0       0       0       0
       0       0       0       0       0       0       0       0       0       0
       0       0       0       0       0       0       0       0       0       0
       0       0       0       0       0       0       0       0       0       0
       0       0       0       0       0       0       0       0       0       0
       0       0       0       0       0       0       0       0       0       0
       0       0       0       0       0       0       0       0       0       0
       0       0       0       0       0       0       0       0       0       0
       0       0       0       0       0       0       0       0       0       0
       0       0       0       0       0       0       0       0       0       0
       0       0       0       0       0       0       0       0       0       0
       0       0       0       0       0       0       0       0       0       0
       0       0       0       0       0       0       0       0       0       0
       0       0       0       0       0       0       0       0       0       0
       0       0       0       0       0       0       0       0       0       0
       0       0       0       0       0       0       0       0       0       0
       0       0       0       0       0       0       0       0       0       0
       0       0       0       0       0       0       0       0       0       0
       0       0       0       0       0       0       0       0       0       0
       0       0       0       0       0       0       0       0       0       0
       0       0       0       0       0       0       0       0       0       0
       0       0       0       0       0       0       0       0       0       0
       0       0       0       0       0       0       0       0       0       0
       0       0       0       0       0       0       0       0       0       0
       0       0       0       0       0       0       0       0       0       0
       0       0       0       0       0       0       0       0       0       0
       0       0       0       0       0       0       0       0       0       0
       0       0       0       0       0       0       0       0       0       0
       0       0       0       0       0       0       0       0       0       0
       0       0       0       0       0       0       0       0       0       0
       0       0       0       0       0       0       0       0       0       0
       0       0       0       0       0       0       0       0       0       0
       0       0       0       0       0       0       0       0       0       0
       0       0       0       0       0       0       0       0       0       0
       0       0       0       0       0       0       0       0       0       0
       0       0       0       0       0       0       0       0       0       0
       0       0       0       0       0       0       0       0       0       0
       0       0       0       0       0       0       0       0       0       0
       0       0       0       0       0       0       0       0       0       0
       0       0       0       0       0       0       0       0       0       0
       0       0       0       0       0       0       0       0       0       0
       0       0       0       0       0       0       0       0       0       0
       0       0       0       0       0       0       0       0       0       0
       0       0       0       0       0       0       0       0       0       0
       0       0       0       0       0       0       0       0       0       0
       0       0       0       0       0       0       0       0       0       0
       0       0       0       0       0       0       0       0       0       0
       0       0       0       0       0       0       0       0       0       0
       0       0       0       0       0       0       0       0       0       0
       0       0       0       0       0       0       0       0       0       0
       0       0       0       0       0       0       0       0       0       0
       0       0       0       0       0       0       0       0       0       0
       0       0       0       0       0       0       0       0       0       0
       0       0       0       0       0       0       0       0       0       0
       0       0       0       0       0       0       0       0       0       0
       0       0       0       0       0       0       0       0       0       0
       0       0       0       0       0       0       0       0       0       0
       0       0       0       0       0       0       0       0       0       0
       0       0       0       0       0       0       0       0       0       0
       0       0       0       0       0       0       0       0       0       0
       0       0       0       0       0       0       0       0       0       0
       0       0       0       0       0       0       0       0       0       0
       0       0       0       0       0       0       0       0       0       0
       0       0       0       0       0       0       0       0       0       0
       0       0       0       0       0       0       0       0       0       0
       0       0       0       0       0       0       0       0       0       0
       0       0       0       0       0       0       0       0       0       0
       0       0       0       0       0       0       0       0       0       0
       0       0       0       0       0       0       0       0       0       0
       0       0       0       0       0       0       0       0       0       0
       0       0       0       0       0       0       0       0       0       0
       0       0       0       0       0       0       0       0       0       0
       0       0       0       0       0       0       0       0       0       0
       0       0       0       0       0       0       0       0       0       0
       0       0       0       0       0       0       0       0       0       0
       0       0       0       0       0       0       0       0       0       0
       0       0       0       0       0       0       0       0       0       0
       0       0       0       0       0       0       0       0       0       0
       0       0       0       0       0       0       0       0       0       0
       0       0       0       0       0       0       0       0       0       0
       0       0       0       0       0       0       0       0       0       0
       0       0       0       0       0       0       0       0       0       0
       0       0       0       0       0       0       0       0       0       0
       0       0       0       0       0       0       0       0       0       0
       0       0       0       0       0       0       0       0       0       0
       0       0       0       0       0       0       0       0       0       0
       0       0       0       0       0       0       0       0       0       0
       0       0       0       0       0       0       0       0       0       0
       0       0       0       0       0       0       0       0       0       0
       0       0       0       0       0       0       0       0       0       0
       0       0       0       0       0       0       0       0       0       0
       0       0       0       0       0       0       0       0       0       0
       0       0       0       0       0       0       0       0       0       0
       0       0       0       0       0       0       0       0       0       0
       0       0       0       0       0       0       0       0       0       0
       0       0       0       0       0       0       0       0       0       0
       0       0       0       0       0       0       0       0       0       0
       0       0       0       0       0       0       0       0       0       0
       0       0       0       0       0       0       0       0       0       0
       0       0       0       0       0       0       0       0       0       0
       0       0       0       0       0       0       0       0       0       0
       0       0       0       0       0       0       0       0       0       0
       0       0       0       0       0       0       0       0       0       0
       0       0       0       0       0       0       0       0       0       0
       0       0       0       0       0       0       0       0       0       0
       0       0       0       0       0       0       0       0       0       0
       0       0       0       0       0       0       0       0       0       0
       0       0       0       0       0       0       0       0       0       0
       0       0       0       0       0       0       0       0       0       0
       0       0       0       0       0       0       0       0       0       0
       0       0       0       0       0       0       0       0       0       0
       0       0       0       0       0       0       0       0       0       0
       0       0       0       0       0       0       0       0       0       0
       0       0       0       0       0       0       0       0       0       0
       0       0       0       0       0       0       0       0       0       0
       0       0       0       0       0       0       0       0       0       0
       0       0       0       0       0       0       0       0       0       0
       0       0       0       0       0       0       0       0       0       0
       0       0       0       0       0       0       0       0       0       0
       0       0       0       0       0       0       0       0       0       0
       0       0       0       0       0       0       0       0       0       0
       0       0       0       0       0       0       0       0       0       0
       0       0       0       0       0       0       0       0       0       0
       0       0       0       0       0       0       0       0       0       0
       0       0       0       0       0       0       0       0       0       0
       0       0       0       0       0       0       0       0       0       0
       0       0       0       0       0       0       0       0       0       0
       0       0       0       0       0       0       0       0       0       0
       0       0       0       0       0       0       0       0       0       0
       0       0       0       0       0       0       0       0       0       0
       0       0       0       0       0       0       0       0       0       0
       0       0       0       0       0       0       0       0       0       0
       0       0       0       0       0       0       0       0       0       0
       0       0       0       0       0       0       0       0       0       0
       0       0       0       0       0       0       0       0       0       0
       0       0       0       0       0       0       0       0       0       0
       0       0       0       0       0       0       0       0       0       0
       0       0       0       0       0       0       0       0       0       0
       0       0       0       0       0       0       0       0       0       0
       0       0       0       0       0       0       0       0       0       0
       0       0       0       0       0       0       0       0       0       0
       0       0       0       0       0       0       0       0       0       0
       0       0       0       0       0       0       0       0       0       0
       0       0       0       0       0       0       0       0       0       0
       0       0       0       0       0       0       0       0       0       0
       0       0       0       0       0       0       0       0       0       0
       0       0       0       0       0       0       0       0       0       0
       0       0       0       0       0       0       0       0       0       0
       0       0       0       0       0       0       0       0       0       0
       0       0       0       0       0       0       0       0       0       0
       0       0       0       0       0       0       0       0       0       0
       0       0       0       0       0       0       0       0       0       0
       0       0       0       0       0       0       0       0       0       0
       0       0       0       0       0       0       0       0       0       0
       0       0       0       0       0       0       0       0       0       0
       0       0       0       0       0       0       0       0       0       0
       0       0       0       0       0       0       0       0       0       0
       0       0       0       0       0       0       0       0       0       0
       0       0       0       0       0       0       0       0       0       0
       0       0       0       0       0       0       0       0       0       0
       0       0       0       0       0       0       0       0       0       0
       0       0       0       0       0       0       0       0       0       0
       0       0       0       0       0       0       0       0       0       0
       0       0       0       0       0       0       0       0       0       0
       0       0       0       0       0       0       0       0       0       0
       0       0       0       0       0       0       0       0       0       0
       0       0       0       0       0       0       0       0       0       0
       0       0       0       0       0       0       0       0       0       0
       0       0       0       0       0       0       0       0       0       0
       0       0       0       0       0       0       0       0       0       0
       0       0       0       0       0       0       0       0       0       0
       0       0       0       0       0       0       0       0       0       0
       0       0       0       0       0       0       0       0       0       0
       0       0       0       0       0       0       0       0       0       0
       0       0       0       0       0       0       0       0       0       0
       0       0       0       0       0       0       0       0       0       0
       0       0       0       0       0       0       0       0       0       0
       0       0       0       0       0       0       0       0       0       0
       0       0       0       0       0       0       0       0       0       0
       0       0       0       0       0       0       0       0       0       0
       0       0       0       0       0       0       0       0       0       0
       0       0       0       0       0       0       0       0       0       0
       0       0       0       0       0       0       0       0       0       0
       0       0       0       0       0       0       0       0       0       0
       0       0       0       0       0       0       0       0       0       0
       0       0       0       0       0       0       0       0       0       0
       0       0       0       0       0       0       0       0       0       0
       0       0       0       0       0       0       0       0       0       0
       0       0       0       0       0       0       0       0       0       0
       0       0       0       0       0       0       0       0       0       0
       0       0       0       0       0       0       0       0       0       0
       0       0       0       0       0       0       0       0       0       0
       0       0       0       0       0       0       0       0       0       0
       0       0       0       0       0       0       0       0       0       0
       0       0       0       0       0       0       0       0       0       0
       0       0       0       0       0       0       0       0       0       0
       0       0       0       0       0       0       0       0       0       0
       0       0       0       0       0       0       0       0       0       0
       0       0       0       0       0       0       0       0       0       0
       0       0       0       0       0       0       0       0       0       0
       0       0       0       0       0       0       0       0       0       0
       0       0       0       0       0       0       0       0       0       0
       0       0       0       0       0       0       0       0       0       0
       0       0       0       0       0       0       0       0       0       0
       0       0       0       0       0       0       0       0       0       0
       0       0       0       0       0       0       0       0       0       0
       0       0       0       0       0       0       0       0       0       0
       0       0       0       0       0       0       0       0       0       0
       0       0       0       0       0       0       0       0       0       0
       0       0       0       0       0       0       0       0       0       0
       0       0       0       0       0       0       0       0       0       0
       0       0       0       0       0       0       0       0       0       0
       0       0       0       0       0       0       0       0       0       0
       0       0       0       0       0       0       0       0       0       0
       0       0       0       0       0       0       0       0       0       0
       0       0       0       0       0       0       0       0       0       0
       0       0       0       0       0       0       0       0       0       0
       0       0       0       0       0       0       0       0       0       0
       0       0       0       0       0       0       0       0       0       0
       0       0       0       0       0       0       0       0       0       0
       0       0       0       0       0       0       0       0       0       0
       0       0       0       0       0       0       0       0       0       0
       0       0       0       0       0       0       0       0       0       0
       0       0       0       0       0       0       0       0       0       0
       0       0       0       0       0       0       0       0       0       0
       0       0       0       0       0       0       0       0       0       0
       0       0       0       0       0       0       0       0       0       0
       0       0       0       0       0       0       0       0       0       0
       0       0       0       0       0       0       0       0       0       0
       0       0       0       0       0       0       0       0       0       0
       0       0       0       0       0       0       0       0       0       0
       0       0       0       0       0       0       0       0       0       0
       0       0       0       0       0       0       0       0       0       0
       0       0       0       0       0       0       0       0       0       0
       0       0       0       0       0       0       0       0       0       0
       0       0       0       0       0       0       0       0       0       0
       0       0       0       0       0       0       0       0       0       0
       0       0       0       0       0       0       0       0       0       0
       0       0       0       0       0       0       0       0       0       0
       0       0       0       0       0       0       0       0       0       0
       0       0       0       0       0       0       0       0       0       0
       0       0       0       0       0       0       0       0       0       0
       0       0       0       0       0       0       0       0       0       0
       0       0       0       0       0       0       0       0       0       0
       0       0       0       0       0       0       0       0       0       0
       0       0       0       0       0       0       0       0       0       0
       0       0       0       0       0       0       0       0       0       0
       0       0       0       0       0       0       0       0       0       0
       0       0       0       0       0       0       0       0       0       0
       0       0       0       0       0       0       0       0       0       0
       0       0       0       0       0       0       0       0       0       0
       0       0       0       0       0       0       0       0       0       0
       0       0       0       0       0       0       0       0       0       0
       0       0       0       0       0       0       0       0       0       0
       0       0       0       0       0       0       0       0       0       0
       0       0       0       0       0       0       0       0       0       0
       0       0       0       0       0       0       0       0       0       0
       0       0       0       0       0       0       0       0       0       0
       0       0       0       0       0       0       0       0       0       0
       0       0       0       0       0       0       0       0       0       0
       0       0       0       0       0       0       0       0       0       0
       0       0       0       0       0       0       0       0       0       0
       0       0       0       0       0       0       0       0       0       0
       0       0       0       0       0       0       0       0       0       0
       0       0       0       0       0       0       0       0       0       0
       0       0       0       0       0       0       0       0       0       0
       0       0       0       0       0       0       0       0       0       0
       0       0       0       0       0       0       0       0       0       0
       0       0       0       0       0       0       0       0       0       0
       0       0       0       0       0       0       0       0       0       0
       0       0       0       0       0       0       0       0       0       0
       0       0       0       0       0       0       0       0       0       0
       0       0       0       0       0       0       0       0       0       0
       0       0       0       0       0       0       0       0       0       0
       0       0       0       0       0       0       0       0       0       0
       0       0       0       0       0       0       0       0       0       0
       0       0       0       0       0       0       0       0       0       0
       0       0       0       0       0       0       0       0       0       0
       0       0       0       0       0       0       0       0       0       0
       0       0       0       0       0       0       0       0       0       0
       0       0       0       0       0       0       0       0       0       0
       0       0       0       0       0       0       0       0       0       0
       0       0       0       0       0       0       0       0       0       0
       0       0       0       0       0       0       0       0       0       0
       0       0       0       0       0       0       0       0       0       0
       0       0       0       0       0       0       0       0       0       0
       0       0       0       0       0       0       0       0       0       0
       0       0       0       0       0       0       0       0       0       0
       0       0       0       0       0       0       0       0       0       0
       0       0       0       0       0       0       0       0       0       0
       0       0       0       0       0       0       0       0       0       0
       0       0       0       0       0       0       0       0       0       0
       0       0       0       0       0       0       0       0       0       0
       0       0
%FLAG SOLVENT_POINTERS                                                          
%FORMAT(3I8)                                                                    
       7     837       2
%FLAG ATOMS_PER_MOLECULE                                                        
%FORMAT(10I8)                                                                   
     196       6       6       6       6       6       6       6       6       6
       6       6       6       6       6       6       6       6       6       6
       6       6       6       6       6       6       6       6       6       6
       6       6       6       6       6       6       6       6       6       6
       6       6       6       6       6       6       6       6       6       6
       6       6       6       6       6       6       6       6       6       6
       6       6       6       6       6       6       6       6       6       6
       6       6       6       6       6       6       6       6       6       6
       6       6       6       6       6       6       6       6       6       6
       6       6       6       6       6       6       6       6       6       6
       6       6       6       6       6       6       6       6       6       6
       6       6       6       6       6       6       6       6       6       6
       6       6       6       6       6       6       6       6       6       6
       6       6       6       6       6       6       6       6       6       6
       6       6       6       6       6       6       6       6       6       6
       6       6       6       6       6       6       6       6       6       6
       6       6       6       6       6       6       6       6       6       6
       6       6       6       6       6       6       6       6       6       6
       6       6       6       6       6       6       6       6       6       6
       6       6       6       6       6       6       6       6       6       6
       6       6       6       6       6       6       6       6       6       6
       6       6       6       6       6       6       6       6       6       6
       6       6       6       6       6       6       6       6       6       6
       6       6       6       6       6       6       6       6       6       6
       6       6       6       6       6       6       6       6       6       6
       6       6       6       6       6       6       6       6       6       6
       6       6       6       6       6       6       6       6       6       6
       6       6       6       6       6       6       6       6       6       6
       6       6       6       6       6       6       6       6       6       6
       6       6       6       6       6       6       6       6       6       6
       6       6       6       6       6       6       6       6       6       6
       6       6       6       6       6       6       6       6       6       6
       6       6       6       6       6       6       6       6       6       6
       6       6       6       6       6       6       6       6       6       6
       6       6       6       6       6       6       6       6       6       6
       6       6       6       6       6       6       6       6       6       6
       6       6       6       6       6       6       6       6       6       6
       6       6       6       6       6       6       6       6       6       6
       6       6       6       6       6       6       6       6       6       6
       6       6       6       6       6       6       6       6       6       6
       6       6       6       6       6       6       6       6       6       6
       6       6       6       6       6       6       6       6       6       6
       6       6       6       6       6       6       6       6       6       6
       6       6       6       6       6       6       6       6       6       6
       6       6       6       6       6       6       6       6       6       6
       6       6       6       6       6       6       6       6       6       6
       6       6       6       6       6       6       6       6       6       6
       6       6       6       6       6       6       6       6       6       6
       6       6       6       6       6       6       6       6       6       6
       6       6       6       6       6       6       6       6       6       6
       6       6       6       6       6       6       6       6       6       6
       6       6       6       6       6       6       6       6       6       6
       6       6       6       6       6       6       6       6       6       6
       6       6       6       6       6       6       6       6       6       6
       6       6       6       6       6       6       6       6       6       6
       6       6       6       6       6       6       6       6       6       6
       6       6       6       6       6       6       6       6       6       6
       6       6       6       6       6       6       6       6       6       6
       6       6       6       6       6       6       6       6       6       6
       6       6       6       6       6       6       6       6       6       6
       6       6       6       6       6       6       6       6       6       6
       6       6       6       6       6       6       6       6       6       6
       6       6       6       6       6       6       6       6       6       6
       6       6       6       6       6       6       6       6       6       6
       6       6       6       6       6       6       6       6       6       6
       6       6       6       6       6       6       6       6       6       6
       6       6       6       6       6       6       6       6       6       6
       6       6       6       6       6       6       6       6       6       6
       6       6       6       6       6       6       6       6       6       6
       6       6       6       6       6       6       6       6       6       6
       6       6       6       6       6       6       6       6       6       6
       6       6       6       6       6       6       6       6       6       6
       6       6       6       6       6       6       6       6       6       6
       6       6       6       6       6       6       6       6       6       6
       6       6       6       6       6       6       6       6       6       6
       6       6       6       6       6       6       6       6       6       6
       6       6       6       6       6       6       6       6       6       6
       6       6       6       6       6       6       6       6       6       6
       6       6       6       6       6       6       6       6       6       6
       6       6       6       6       6       6       6       6       6       6
       6       6       6       6       6       6       6       6       6       6
       6       6       6       6       6       6       6       6       6       6
       6       6       6       6       6       6       6       6       6       6
       6       6       6       6       6       6       6
%FLAG BOX_DIMENSIONS                                                            
%FORMAT(5E16.8)                                                                 
  9.00000000E+01  3.92810000E+01  3.92370000E+01  3.74970000E+01
%FLAG RADIUS_SET                                                                
%FORMAT(1a80)                                                                   
modified Bondi radii (mbondi)                                                   
%FLAG RADII                                                                     
%FORMAT(5E16.8)                                                                 
  1.55000000E+00  1.30000000E+00  1.70000000E+00  1.30000000E+00  1.70000000E+00
  1.50000000E+00  1.70000000E+00  1.30000000E+00  1.30000000E+00  1.70000000E+00
  1.30000000E+00  1.30000000E+00  1.30000000E+00  1.70000000E+00  1.50000000E+00
  1.55000000E+00  1.70000000E+00  1.30000000E+00  1.30000000E+00  1.30000000E+00
  1.70000000E+00  1.30000000E+00  1.30000000E+00  1.70000000E+00  1.50000000E+00
  1.55000000E+00  1.70000000E+00  1.30000000E+00  1.30000000E+00  1.30000000E+00
  1.70000000E+00  1.30000000E+00  1.70000000E+00  1.30000000E+00  1.30000000E+00
  1.70000000E+00  1.30000000E+00  1.70000000E+00  1.30000000E+00  1.30000000E+00
  1.30000000E+00  1.70000000E+00  1.30000000E+00  1.30000000E+00  1.30000000E+00
  1.55000000E+00  1.30000000E+00  1.70000000E+00  1.30000000E+00  1.70000000E+00
  1.50000000E+00  1.70000000E+00  1.30000000E+00  1.70000000E+00  1.30000000E+00
  1.30000000E+00  1.30000000E+00  1.70000000E+00  1.30000000E+00  1.30000000E+00
  1.30000000E+00  1.70000000E+00  1.50000000E+00  1.55000000E+00  1.70000000E+00
  1.30000000E+00  1.30000000E+00  1.30000000E+00  1.70000000E+00  1.30000000E+00
  1.70000000E+00  1.30000000E+00  1.30000000E+00  1.70000000E+00  1.30000000E+00
  1.70000000E+00  1.30000000E+00  1.30000000E+00  1.30000000E+00  1.70000000E+00
  1.30000000E+00  1.30000000E+00  1.30000000E+00  1.55000000E+00  1.30000000E+00
  1.70000000E+00  1.30000000E+00  1.70000000E+00  1.30000000E+00  1.30000000E+00
  1.30000000E+00  1.70000000E+00  1.50000000E+00  1.70000000E+00  1.50000000E+00
  1.55000000E+00  1.30000000E+00  1.70000000E+00  1.30000000E+00  1.70000000E+00
  1.30000000E+00  1.30000000E+00  1.30000000E+00  1.70000000E+00  1.50000000E+00
  1.55000000E+00  1.70000000E+00  1.30000000E+00  1.30000000E+00  1.30000000E+00
  1.70000000E+00  1.30000000E+00  1.70000000E+00  1.30000000E+00  1.30000000E+00
  1.70000000E+00  1.30000000E+00  1.70000000E+00  1.30000000E+00  1.30000000E+00
  1.30000000E+00  1.70000000E+00  1.30000000E+00  1.30000000E+00  1.30000000E+00
  1.70000000E+00  1.50000000E+00  1.55000000E+00  1.70000000E+00  1.30000000E+00
  1.30000000E+00  1.30000000E+00  1.70000000E+00  1.30000000E+00  1.70000000E+00
  1.30000000E+00  1.30000000E+00  1.70000000E+00  1.30000000E+00  1.70000000E+00
  1.30000000E+00  1.30000000E+00  1.30000000E+00  1.70000000E+00  1.30000000E+00
  1.30000000E+00  1.30000000E+00  1.70000000E+00  1.50000000E+00  1.55000000E+00
  1.70000000E+00  1.30000000E+00  1.30000000E+00  1.30000000E+00  1.70000000E+00
  1.30000000E+00  1.70000000E+00  1.30000000E+00  1.50000000E+00  8.00000000E-01
  1.70000000E+00  1.30000000E+00  1.70000000E+00  1.30000000E+00  1.70000000E+00
  1.30000000E+00  1.30000000E+00  1.30000000E+00  1.70000000E+00  1.30000000E+00
  1.30000000E+00  1.70000000E+00  1.30000000E+00  1.70000000E+00  1.30000000E+00
  1.30000000E+00  1.30000000E+00  1.70000000E+00  1.50000000E+00  1.55000000E+00
  1.70000000E+00  1.30000000E+00  1.30000000E+00  1.30000000E+00  1.70000000E+00
  1.30000000E+00  1.70000000E+00  1.30000000E+00  1.70000000E+00  1.30000000E+00
  1.30000000E+00  1.30000000E+00  1.70000000E+00  1.30000000E+00  1.30000000E+00
  1.30000000E+00  1.30000000E+00  1.70000000E+00  1.30000000E+00  1.30000000E+00
  1.50000000E+00  8.00000000E-01  1.30000000E+00  1.70000000E+00  1.30000000E+00
  1.30000000E+00  1.50000000E+00  8.00000000E-01  1.30000000E+00  1.70000000E+00
  1.30000000E+00  1.30000000E+00  1.50000000E+00  8.00000000E-01  1.30000000E+00
  1.70000000E+00  1.30000000E+00  1.30000000E+00  1.50000000E+00  8.00000000E-01
  1.30000000E+00  1.70000000E+00  1.30000000E+00  1.30000000E+00  1.50000000E+00
  8.00000000E-01  1.30000000E+00  1.70000000E+00  1.30000000E+00  1.30000000E+00
  1.50000000E+00  8.00000000E-01  1.30000000E+00  1.70000000E+00  1.30000000E+00
  1.30000000E+00  1.50000000E+00  8.00000000E-01  1.30000000E+00  1.70000000E+00
  1.30000000E+00  1.30000000E+00  1.50000000E+00  8.00000000E-01  1.30000000E+00
  1.70000000E+00  1.30000000E+00  1.30000000E+00  1.50000000E+00  8.00000000E-01
  1.30000000E+00  1.70000000E+00  1.30000000E+00  1.30000000E+00  1.50000000E+00
  8.00000000E-01  1.30000000E+00  1.70000000E+00  1.30000000E+00  1.30000000E+00
  1.50000000E+00  8.00000000E-01  1.30000000E+00  1.70000000E+00  1.30000000E+00
  1.30000000E+00  1.50000000E+00  8.00000000E-01  1.30000000E+00  1.70000000E+00
  1.30000000E+00  1.30000000E+00  1.50000000E+00  8.00000000E-01  1.30000000E+00
  1.70000000E+00  1.30000000E+00  1.30000000E+00  1.50000000E+00  8.00000000E-01
  1.30000000E+00  1.70000000E+00  1.30000000E+00  1.30000000E+00  1.50000000E+00
  8.00000000E-01  1.30000000E+00  1.70000000E+00  1.30000000E+00  1.30000000E+00
  1.50000000E+00  8.00000000E-01  1.30000000E+00  1.70000000E+00  1.30000000E+00
  1.30000000E+00  1.50000000E+00  8.00000000E-01  1.30000000E+00  1.70000000E+00
  1.30000000E+00  1.30000000E+00  1.50000000E+00  8.00000000E-01  1.30000000E+00
  1.70000000E+00  1.30000000E+00  1.30000000E+00  1.50000000E+00  8.00000000E-01
  1.30000000E+00  1.70000000E+00  1.30000000E+00  1.30000000E+00  1.50000000E+00
  8.00000000E-01  1.30000000E+00  1.70000000E+00  1.30000000E+00  1.30000000E+00
  1.50000000E+00  8.00000000E-01  1.30000000E+00  1.70000000E+00  1.30000000E+00
  1.30000000E+00  1.50000000E+00  8.00000000E-01  1.30000000E+00  1.70000000E+00
  1.30000000E+00  1.30000000E+00  1.50000000E+00  8.00000000E-01  1.30000000E+00
  1.70000000E+00  1.30000000E+00  1.30000000E+00  1.50000000E+00  8.00000000E-01
  1.30000000E+00  1.70000000E+00  1.30000000E+00  1.30000000E+00  1.50000000E+00
  8.00000000E-01  1.30000000E+00  1.70000000E+00  1.30000000E+00  1.30000000E+00
  1.50000000E+00  8.00000000E-01  1.30000000E+00  1.70000000E+00  1.30000000E+00
  1.30000000E+00  1.50000000E+00  8.00000000E-01  1.30000000E+00  1.70000000E+00
  1.30000000E+00  1.30000000E+00  1.50000000E+00  8.00000000E-01  1.30000000E+00
  1.70000000E+00  1.30000000E+00  1.30000000E+00  1.50000000E+00  8.00000000E-01
  1.30000000E+00  1.70000000E+00  1.30000000E+00  1.30000000E+00  1.50000000E+00
  8.00000000E-01  1.30000000E+00  1.70000000E+00  1.30000000E+00  1.30000000E+00
  1.50000000E+00  8.00000000E-01  1.30000000E+00  1.70000000E+00  1.30000000E+00
  1.30000000E+00  1.50000000E+00  8.00000000E-01  1.30000000E+00  1.70000000E+00
  1.30000000E+00  1.30000000E+00  1.50000000E+00  8.00000000E-01  1.30000000E+00
  1.70000000E+00  1.30000000E+00  1.30000000E+00  1.50000000E+00  8.00000000E-01
  1.30000000E+00  1.70000000E+00  1.30000000E+00  1.30000000E+00  1.50000000E+00
  8.00000000E-01  1.30000000E+00  1.70000000E+00  1.30000000E+00  1.30000000E+00
  1.50000000E+00  8.00000000E-01  1.30000000E+00  1.70000000E+00  1.30000000E+00
  1.30000000E+00  1.50000000E+00  8.00000000E-01  1.30000000E+00  1.70000000E+00
  1.30000000E+00  1.30000000E+00  1.50000000E+00  8.00000000E-01  1.30000000E+00
  1.70000000E+00  1.30000000E+00  1.30000000E+00  1.50000000E+00  8.00000000E-01
  1.30000000E+00  1.70000000E+00  1.30000000E+00  1.30000000E+00  1.50000000E+00
  8.00000000E-01  1.30000000E+00  1.70000000E+00  1.30000000E+00  1.30000000E+00
  1.50000000E+00  8.00000000E-01  1.30000000E+00  1.70000000E+00  1.30000000E+00
  1.30000000E+00  1.50000000E+00  8.00000000E-01  1.30000000E+00  1.70000000E+00
  1.30000000E+00  1.30000000E+00  1.50000000E+00  8.00000000E-01  1.30000000E+00
  1.70000000E+00  1.30000000E+00  1.30000000E+00  1.50000000E+00  8.00000000E-01
  1.30000000E+00  1.70000000E+00  1.30000000E+00  1.30000000E+00  1.50000000E+00
  8.00000000E-01  1.30000000E+00  1.70000000E+00  1.30000000E+00  1.30000000E+00
  1.50000000E+00  8.00000000E-01  1.30000000E+00  1.70000000E+00  1.30000000E+00
  1.30000000E+00  1.50000000E+00  8.00000000E-01  1.30000000E+00  1.70000000E+00
  1.30000000E+00  1.30000000E+00  1.50000000E+00  8.00000000E-01  1.30000000E+00
  1.70000000E+00  1.30000000E+00  1.30000000E+00  1.50000000E+00  8.00000000E-01
  1.30000000E+00  1.70000000E+00  1.30000000E+00  1.30000000E+00  1.50000000E+00
  8.00000000E-01  1.30000000E+00  1.70000000E+00  1.30000000E+00  1.30000000E+00
  1.50000000E+00  8.00000000E-01  1.30000000E+00  1.70000000E+00  1.30000000E+00
  1.30000000E+00  1.50000000E+00  8.00000000E-01  1.30000000E+00  1.70000000E+00
  1.30000000E+00  1.30000000E+00  1.50000000E+00  8.00000000E-01  1.30000000E+00
  1.70000000E+00  1.30000000E+00  1.30000000E+00  1.50000000E+00  8.00000000E-01
  1.30000000E+00  1.70000000E+00  1.30000000E+00  1.30000000E+00  1.50000000E+00
  8.00000000E-01  1.30000000E+00  1.70000000E+00  1.30000000E+00  1.30000000E+00
  1.50000000E+00  8.00000000E-01  1.30000000E+00  1.70000000E+00  1.30000000E+00
  1.30000000E+00  1.50000000E+00  8.00000000E-01  1.30000000E+00  1.70000000E+00
  1.30000000E+00  1.30000000E+00  1.50000000E+00  8.00000000E-01  1.30000000E+00
  1.70000000E+00  1.30000000E+00  1.30000000E+00  1.50000000E+00  8.00000000E-01
  1.30000000E+00  1.70000000E+00  1.30000000E+00  1.30000000E+00  1.50000000E+00
  8.00000000E-01  1.30000000E+00  1.70000000E+00  1.30000000E+00  1.30000000E+00
  1.50000000E+00  8.00000000E-01  1.30000000E+00  1.70000000E+00  1.30000000E+00
  1.30000000E+00  1.50000000E+00  8.00000000E-01  1.30000000E+00  1.70000000E+00
  1.30000000E+00  1.30000000E+00  1.50000000E+00  8.00000000E-01  1.30000000E+00
  1.70000000E+00  1.30000000E+00  1.30000000E+00  1.50000000E+00  8.00000000E-01
  1.30000000E+00  1.70000000E+00  1.30000000E+00  1.30000000E+00  1.50000000E+00
  8.00000000E-01  1.30000000E+00  1.70000000E+00  1.30000000E+00  1.30000000E+00
  1.50000000E+00  8.00000000E-01  1.30000000E+00  1.70000000E+00  1.30000000E+00
  1.30000000E+00  1.50000000E+00  8.00000000E-01  1.30000000E+00  1.70000000E+00
  1.30000000E+00  1.30000000E+00  1.50000000E+00  8.00000000E-01  1.30000000E+00
  1.70000000E+00  1.30000000E+00  1.30000000E+00  1.50000000E+00  8.00000000E-01
  1.30000000E+00  1.70000000E+00  1.30000000E+00  1.30000000E+00  1.50000000E+00
  8.00000000E-01  1.30000000E+00  1.70000000E+00  1.30000000E+00  1.30000000E+00
  1.50000000E+00  8.00000000E-01  1.30000000E+00  1.70000000E+00  1.30000000E+00
  1.30000000E+00  1.50000000E+00  8.00000000E-01  1.30000000E+00  1.70000000E+00
  1.30000000E+00  1.30000000E+00  1.50000000E+00  8.00000000E-01  1.30000000E+00
  1.70000000E+00  1.30000000E+00  1.30000000E+00  1.50000000E+00  8.00000000E-01
  1.30000000E+00  1.70000000E+00  1.30000000E+00  1.30000000E+00  1.50000000E+00
  8.00000000E-01  1.30000000E+00  1.70000000E+00  1.30000000E+00  1.30000000E+00
  1.50000000E+00  8.00000000E-01  1.30000000E+00  1.70000000E+00  1.30000000E+00
  1.30000000E+00  1.50000000E+00  8.00000000E-01  1.30000000E+00  1.70000000E+00
  1.30000000E+00  1.30000000E+00  1.50000000E+00  8.00000000E-01  1.30000000E+00
  1.70000000E+00  1.30000000E+00  1.30000000E+00  1.50000000E+00  8.00000000E-01
  1.30000000E+00  1.70000000E+00  1.30000000E+00  1.30000000E+00  1.50000000E+00
  8.00000000E-01  1.30000000E+00  1.70000000E+00  1.30000000E+00  1.30000000E+00
  1.50000000E+00  8.00000000E-01  1.30000000E+00  1.70000000E+00  1.30000000E+00
  1.30000000E+00  1.50000000E+00  8.00000000E-01  1.30000000E+00  1.70000000E+00
  1.30000000E+00  1.30000000E+00  1.50000000E+00  8.00000000E-01  1.30000000E+00
  1.70000000E+00  1.30000000E+00  1.30000000E+00  1.50000000E+00  8.00000000E-01
  1.30000000E+00  1.70000000E+00  1.30000000E+00  1.30000000E+00  1.50000000E+00
  8.00000000E-01  1.30000000E+00  1.70000000E+00  1.30000000E+00  1.30000000E+00
  1.50000000E+00  8.00000000E-01  1.30000000E+00  1.70000000E+00  1.30000000E+00
  1.30000000E+00  1.50000000E+00  8.00000000E-01  1.30000000E+00  1.70000000E+00
  1.30000000E+00  1.30000000E+00  1.50000000E+00  8.00000000E-01  1.30000000E+00
  1.70000000E+00  1.30000000E+00  1.30000000E+00  1.50000000E+00  8.00000000E-01
  1.30000000E+00  1.70000000E+00  1.30000000E+00  1.30000000E+00  1.50000000E+00
  8.00000000E-01  1.30000000E+00  1.70000000E+00  1.30000000E+00  1.30000000E+00
  1.50000000E+00  8.00000000E-01  1.30000000E+00  1.70000000E+00  1.30000000E+00
  1.30000000E+00  1.50000000E+00  8.00000000E-01  1.30000000E+00  1.70000000E+00
  1.30000000E+00  1.30000000E+00  1.50000000E+00  8.00000000E-01  1.30000000E+00
  1.70000000E+00  1.30000000E+00  1.30000000E+00  1.50000000E+00  8.00000000E-01
  1.30000000E+00  1.70000000E+00  1.30000000E+00  1.30000000E+00  1.50000000E+00
  8.00000000E-01  1.30000000E+00  1.70000000E+00  1.30000000E+00  1.30000000E+00
  1.50000000E+00  8.00000000E-01  1.30000000E+00  1.70000000E+00  1.30000000E+00
  1.30000000E+00  1.50000000E+00  8.00000000E-01  1.30000000E+00  1.70000000E+00
  1.30000000E+00  1.30000000E+00  1.50000000E+00  8.00000000E-01  1.30000000E+00
  1.70000000E+00  1.30000000E+00  1.30000000E+00  1.50000000E+00  8.00000000E-01
  1.30000000E+00  1.70000000E+00  1.30000000E+00  1.30000000E+00  1.50000000E+00
  8.00000000E-01  1.30000000E+00  1.70000000E+00  1.30000000E+00  1.30000000E+00
  1.50000000E+00  8.00000000E-01  1.30000000E+00  1.70000000E+00  1.30000000E+00
  1.30000000E+00  1.50000000E+00  8.00000000E-01  1.30000000E+00  1.70000000E+00
  1.30000000E+00  1.30000000E+00  1.50000000E+00  8.00000000E-01  1.30000000E+00
  1.70000000E+00  1.30000000E+00  1.30000000E+00  1.50000000E+00  8.00000000E-01
  1.30000000E+00  1.70000000E+00  1.30000000E+00  1.30000000E+00  1.50000000E+00
  8.00000000E-01  1.30000000E+00  1.70000000E+00  1.30000000E+00  1.30000000E+00
  1.50000000E+00  8.00000000E-01  1.30000000E+00  1.70000000E+00  1.30000000E+00
  1.30000000E+00  1.50000000E+00  8.00000000E-01  1.30000000E+00  1.70000000E+00
  1.30000000E+00  1.30000000E+00  1.50000000E+00  8.00000000E-01  1.30000000E+00
  1.70000000E+00  1.30000000E+00  1.30000000E+00  1.50000000E+00  8.00000000E-01
  1.30000000E+00  1.70000000E+00  1.30000000E+00  1.30000000E+00  1.50000000E+00
  8.00000000E-01  1.30000000E+00  1.70000000E+00  1.30000000E+00  1.30000000E+00
  1.50000000E+00  8.00000000E-01  1.30000000E+00  1.70000000E+00  1.30000000E+00
  1.30000000E+00  1.50000000E+00  8.00000000E-01  1.30000000E+00  1.70000000E+00
  1.30000000E+00  1.30000000E+00  1.50000000E+00  8.00000000E-01  1.30000000E+00
  1.70000000E+00  1.30000000E+00  1.30000000E+00  1.50000000E+00  8.00000000E-01
  1.30000000E+00  1.70000000E+00  1.30000000E+00  1.30000000E+00  1.50000000E+00
  8.00000000E-01  1.30000000E+00  1.70000000E+00  1.30000000E+00  1.30000000E+00
  1.50000000E+00  8.00000000E-01  1.30000000E+00  1.70000000E+00  1.30000000E+00
  1.30000000E+00  1.50000000E+00  8.00000000E-01  1.30000000E+00  1.70000000E+00
  1.30000000E+00  1.30000000E+00  1.50000000E+00  8.00000000E-01  1.30000000E+00
  1.70000000E+00  1.30000000E+00  1.30000000E+00  1.50000000E+00  8.00000000E-01
  1.30000000E+00  1.70000000E+00  1.30000000E+00  1.30000000E+00  1.50000000E+00
  8.00000000E-01  1.30000000E+00  1.70000000E+00  1.30000000E+00  1.30000000E+00
  1.50000000E+00  8.00000000E-01  1.30000000E+00  1.70000000E+00  1.30000000E+00
  1.30000000E+00  1.50000000E+00  8.00000000E-01  1.30000000E+00  1.70000000E+00
  1.30000000E+00  1.30000000E+00  1.50000000E+00  8.00000000E-01  1.30000000E+00
  1.70000000E+00  1.30000000E+00  1.30000000E+00  1.50000000E+00  8.00000000E-01
  1.30000000E+00  1.70000000E+00  1.30000000E+00  1.30000000E+00  1.50000000E+00
  8.00000000E-01  1.30000000E+00  1.70000000E+00  1.30000000E+00  1.30000000E+00
  1.50000000E+00  8.00000000E-01  1.30000000E+00  1.70000000E+00  1.30000000E+00
  1.30000000E+00  1.50000000E+00  8.00000000E-01  1.30000000E+00  1.70000000E+00
  1.30000000E+00  1.30000000E+00  1.50000000E+00  8.00000000E-01  1.30000000E+00
  1.70000000E+00  1.30000000E+00  1.30000000E+00  1.50000000E+00  8.00000000E-01
  1.30000000E+00  1.70000000E+00  1.30000000E+00  1.30000000E+00  1.50000000E+00
  8.00000000E-01  1.30000000E+00  1.70000000E+00  1.30000000E+00  1.30000000E+00
  1.50000000E+00  8.00000000E-01  1.30000000E+00  1.70000000E+00  1.30000000E+00
  1.30000000E+00  1.50000000E+00  8.00000000E-01  1.30000000E+00  1.70000000E+00
  1.30000000E+00  1.30000000E+00  1.50000000E+00  8.00000000E-01  1.30000000E+00
  1.70000000E+00  1.30000000E+00  1.30000000E+00  1.50000000E+00  8.00000000E-01
  1.30000000E+00  1.70000000E+00  1.30000000E+00  1.30000000E+00  1.50000000E+00
  8.00000000E-01  1.30000000E+00  1.70000000E+00  1.30000000E+00  1.30000000E+00
  1.50000000E+00  8.00000000E-01  1.30000000E+00  1.70000000E+00  1.30000000E+00
  1.30000000E+00  1.50000000E+00  8.00000000E-01  1.30000000E+00  1.70000000E+00
  1.30000000E+00  1.30000000E+00  1.50000000E+00  8.00000000E-01  1.30000000E+00
  1.70000000E+00  1.30000000E+00  1.30000000E+00  1.50000000E+00  8.00000000E-01
  1.30000000E+00  1.70000000E+00  1.30000000E+00  1.30000000E+00  1.50000000E+00
  8.00000000E-01  1.30000000E+00  1.70000000E+00  1.30000000E+00  1.30000000E+00
  1.50000000E+00  8.00000000E-01  1.30000000E+00  1.70000000E+00  1.30000000E+00
  1.30000000E+00  1.50000000E+00  8.00000000E-01  1.30000000E+00  1.70000000E+00
  1.30000000E+00  1.30000000E+00  1.50000000E+00  8.00000000E-01  1.30000000E+00
  1.70000000E+00  1.30000000E+00  1.30000000E+00  1.50000000E+00  8.00000000E-01
  1.30000000E+00  1.70000000E+00  1.30000000E+00  1.30000000E+00  1.50000000E+00
  8.00000000E-01  1.30000000E+00  1.70000000E+00  1.30000000E+00  1.30000000E+00
  1.50000000E+00  8.00000000E-01  1.30000000E+00  1.70000000E+00  1.30000000E+00
  1.30000000E+00  1.50000000E+00  8.00000000E-01  1.30000000E+00  1.70000000E+00
  1.30000000E+00  1.30000000E+00  1.50000000E+00  8.00000000E-01  1.30000000E+00
  1.70000000E+00  1.30000000E+00  1.30000000E+00  1.50000000E+00  8.00000000E-01
  1.30000000E+00  1.70000000E+00  1.30000000E+00  1.30000000E+00  1.50000000E+00
  8.00000000E-01  1.30000000E+00  1.70000000E+00  1.30000000E+00  1.30000000E+00
  1.50000000E+00  8.00000000E-01  1.30000000E+00  1.70000000E+00  1.30000000E+00
  1.30000000E+00  1.50000000E+00  8.00000000E-01  1.30000000E+00  1.70000000E+00
  1.30000000E+00  1.30000000E+00  1.50000000E+00  8.00000000E-01  1.30000000E+00
  1.70000000E+00  1.30000000E+00  1.30000000E+00  1.50000000E+00  8.00000000E-01
  1.30000000E+00  1.70000000E+00  1.30000000E+00  1.30000000E+00  1.50000000E+00
  8.00000000E-01  1.30000000E+00  1.70000000E+00  1.30000000E+00  1.30000000E+00
  1.50000000E+00  8.00000000E-01  1.30000000E+00  1.70000000E+00  1.30000000E+00
  1.30000000E+00  1.50000000E+00  8.00000000E-01  1.30000000E+00  1.70000000E+00
  1.30000000E+00  1.30000000E+00  1.50000000E+00  8.00000000E-01  1.30000000E+00
  1.70000000E+00  1.30000000E+00  1.30000000E+00  1.50000000E+00  8.00000000E-01
  1.30000000E+00  1.70000000E+00  1.30000000E+00  1.30000000E+00  1.50000000E+00
  8.00000000E-01  1.30000000E+00  1.70000000E+00  1.30000000E+00  1.30000000E+00
  1.50000000E+00  8.00000000E-01  1.30000000E+00  1.70000000E+00  1.30000000E+00
  1.30000000E+00  1.50000000E+00  8.00000000E-01  1.30000000E+00  1.70000000E+00
  1.30000000E+00  1.30000000E+00  1.50000000E+00  8.00000000E-01  1.30000000E+00
  1.70000000E+00  1.30000000E+00  1.30000000E+00  1.50000000E+00  8.00000000E-01
  1.30000000E+00  1.70000000E+00  1.30000000E+00  1.30000000E+00  1.50000000E+00
  8.00000000E-01  1.30000000E+00  1.70000000E+00  1.30000000E+00  1.30000000E+00
  1.50000000E+00  8.00000000E-01  1.30000000E+00  1.70000000E+00  1.30000000E+00
  1.30000000E+00  1.50000000E+00  8.00000000E-01  1.30000000E+00  1.70000000E+00
  1.30000000E+00  1.30000000E+00  1.50000000E+00  8.00000000E-01  1.30000000E+00
  1.70000000E+00  1.30000000E+00  1.30000000E+00  1.50000000E+00  8.00000000E-01
  1.30000000E+00  1.70000000E+00  1.30000000E+00  1.30000000E+00  1.50000000E+00
  8.00000000E-01  1.30000000E+00  1.70000000E+00  1.30000000E+00  1.30000000E+00
  1.50000000E+00  8.00000000E-01  1.30000000E+00  1.70000000E+00  1.30000000E+00
  1.30000000E+00  1.50000000E+00  8.00000000E-01  1.30000000E+00  1.70000000E+00
  1.30000000E+00  1.30000000E+00  1.50000000E+00  8.00000000E-01  1.30000000E+00
  1.70000000E+00  1.30000000E+00  1.30000000E+00  1.50000000E+00  8.00000000E-01
  1.30000000E+00  1.70000000E+00  1.30000000E+00  1.30000000E+00  1.50000000E+00
  8.00000000E-01  1.30000000E+00  1.70000000E+00  1.30000000E+00  1.30000000E+00
  1.50000000E+00  8.00000000E-01  1.30000000E+00  1.70000000E+00  1.30000000E+00
  1.30000000E+00  1.50000000E+00  8.00000000E-01  1.30000000E+00  1.70000000E+00
  1.30000000E+00  1.30000000E+00  1.50000000E+00  8.00000000E-01  1.30000000E+00
  1.70000000E+00  1.30000000E+00  1.30000000E+00  1.50000000E+00  8.00000000E-01
  1.30000000E+00  1.70000000E+00  1.30000000E+00  1.30000000E+00  1.50000000E+00
  8.00000000E-01  1.30000000E+00  1.70000000E+00  1.30000000E+00  1.30000000E+00
  1.50000000E+00  8.00000000E-01  1.30000000E+00  1.70000000E+00  1.30000000E+00
  1.30000000E+00  1.50000000E+00  8.00000000E-01  1.30000000E+00  1.70000000E+00
  1.30000000E+00  1.30000000E+00  1.50000000E+00  8.00000000E-01  1.30000000E+00
  1.70000000E+00  1.30000000E+00  1.30000000E+00  1.50000000E+00  8.00000000E-01
  1.30000000E+00  1.70000000E+00  1.30000000E+00  1.30000000E+00  1.50000000E+00
  8.00000000E-01  1.30000000E+00  1.70000000E+00  1.30000000E+00  1.30000000E+00
  1.50000000E+00  8.00000000E-01  1.30000000E+00  1.70000000E+00  1.30000000E+00
  1.30000000E+00  1.50000000E+00  8.00000000E-01  1.30000000E+00  1.70000000E+00
  1.30000000E+00  1.30000000E+00  1.50000000E+00  8.00000000E-01  1.30000000E+00
  1.70000000E+00  1.30000000E+00  1.30000000E+00  1.50000000E+00  8.00000000E-01
  1.30000000E+00  1.70000000E+00  1.30000000E+00  1.30000000E+00  1.50000000E+00
  8.00000000E-01  1.30000000E+00  1.70000000E+00  1.30000000E+00  1.30000000E+00
  1.50000000E+00  8.00000000E-01  1.30000000E+00  1.70000000E+00  1.30000000E+00
  1.30000000E+00  1.50000000E+00  8.00000000E-01  1.30000000E+00  1.70000000E+00
  1.30000000E+00  1.30000000E+00  1.50000000E+00  8.00000000E-01  1.30000000E+00
  1.70000000E+00  1.30000000E+00  1.30000000E+00  1.50000000E+00  8.00000000E-01
  1.30000000E+00  1.70000000E+00  1.30000000E+00  1.30000000E+00  1.50000000E+00
  8.00000000E-01  1.30000000E+00  1.70000000E+00  1.30000000E+00  1.30000000E+00
  1.50000000E+00  8.00000000E-01  1.30000000E+00  1.70000000E+00  1.30000000E+00
  1.30000000E+00  1.50000000E+00  8.00000000E-01  1.30000000E+00  1.70000000E+00
  1.30000000E+00  1.30000000E+00  1.50000000E+00  8.00000000E-01  1.30000000E+00
  1.70000000E+00  1.30000000E+00  1.30000000E+00  1.50000000E+00  8.00000000E-01
  1.30000000E+00  1.70000000E+00  1.30000000E+00  1.30000000E+00  1.50000000E+00
  8.00000000E-01  1.30000000E+00  1.70000000E+00  1.30000000E+00  1.30000000E+00
  1.50000000E+00  8.00000000E-01  1.30000000E+00  1.70000000E+00  1.30000000E+00
  1.30000000E+00  1.50000000E+00  8.00000000E-01  1.30000000E+00  1.70000000E+00
  1.30000000E+00  1.30000000E+00  1.50000000E+00  8.00000000E-01  1.30000000E+00
  1.70000000E+00  1.30000000E+00  1.30000000E+00  1.50000000E+00  8.00000000E-01
  1.30000000E+00  1.70000000E+00  1.30000000E+00  1.30000000E+00  1.50000000E+00
  8.00000000E-01  1.30000000E+00  1.70000000E+00  1.30000000E+00  1.30000000E+00
  1.50000000E+00  8.00000000E-01  1.30000000E+00  1.70000000E+00  1.30000000E+00
  1.30000000E+00  1.50000000E+00  8.00000000E-01  1.30000000E+00  1.70000000E+00
  1.30000000E+00  1.30000000E+00  1.50000000E+00  8.00000000E-01  1.30000000E+00
  1.70000000E+00  1.30000000E+00  1.30000000E+00  1.50000000E+00  8.00000000E-01
  1.30000000E+00  1.70000000E+00  1.30000000E+00  1.30000000E+00  1.50000000E+00
  8.00000000E-01  1.30000000E+00  1.70000000E+00  1.30000000E+00  1.30000000E+00
  1.50000000E+00  8.00000000E-01  1.30000000E+00  1.70000000E+00  1.30000000E+00
  1.30000000E+00  1.50000000E+00  8.00000000E-01  1.30000000E+00  1.70000000E+00
  1.30000000E+00  1.30000000E+00  1.50000000E+00  8.00000000E-01  1.30000000E+00
  1.70000000E+00  1.30000000E+00  1.30000000E+00  1.50000000E+00  8.00000000E-01
  1.30000000E+00  1.70000000E+00  1.30000000E+00  1.30000000E+00  1.50000000E+00
  8.00000000E-01  1.30000000E+00  1.70000000E+00  1.30000000E+00  1.30000000E+00
  1.50000000E+00  8.00000000E-01  1.30000000E+00  1.70000000E+00  1.30000000E+00
  1.30000000E+00  1.50000000E+00  8.00000000E-01  1.30000000E+00  1.70000000E+00
  1.30000000E+00  1.30000000E+00  1.50000000E+00  8.00000000E-01  1.30000000E+00
  1.70000000E+00  1.30000000E+00  1.30000000E+00  1.50000000E+00  8.00000000E-01
  1.30000000E+00  1.70000000E+00  1.30000000E+00  1.30000000E+00  1.50000000E+00
  8.00000000E-01  1.30000000E+00  1.70000000E+00  1.30000000E+00  1.30000000E+00
  1.50000000E+00  8.00000000E-01  1.30000000E+00  1.70000000E+00  1.30000000E+00
  1.30000000E+00  1.50000000E+00  8.00000000E-01  1.30000000E+00  1.70000000E+00
  1.30000000E+00  1.30000000E+00  1.50000000E+00  8.00000000E-01  1.30000000E+00
  1.70000000E+00  1.30000000E+00  1.30000000E+00  1.50000000E+00  8.00000000E-01
  1.30000000E+00  1.70000000E+00  1.30000000E+00  1.30000000E+00  1.50000000E+00
  8.00000000E-01  1.30000000E+00  1.70000000E+00  1.30000000E+00  1.30000000E+00
  1.50000000E+00  8.00000000E-01  1.30000000E+00  1.70000000E+00  1.30000000E+00
  1.30000000E+00  1.50000000E+00  8.00000000E-01  1.30000000E+00  1.70000000E+00
  1.30000000E+00  1.30000000E+00  1.50000000E+00  8.00000000E-01  1.30000000E+00
  1.70000000E+00  1.30000000E+00  1.30000000E+00  1.50000000E+00  8.00000000E-01
  1.30000000E+00  1.70000000E+00  1.30000000E+00  1.30000000E+00  1.50000000E+00
  8.00000000E-01  1.30000000E+00  1.70000000E+00  1.30000000E+00  1.30000000E+00
  1.50000000E+00  8.00000000E-01  1.30000000E+00  1.70000000E+00  1.30000000E+00
  1.30000000E+00  1.50000000E+00  8.00000000E-01  1.30000000E+00  1.70000000E+00
  1.30000000E+00  1.30000000E+00  1.50000000E+00  8.00000000E-01  1.30000000E+00
  1.70000000E+00  1.30000000E+00  1.30000000E+00  1.50000000E+00  8.00000000E-01
  1.30000000E+00  1.70000000E+00  1.30000000E+00  1.30000000E+00  1.50000000E+00
  8.00000000E-01  1.30000000E+00  1.70000000E+00  1.30000000E+00  1.30000000E+00
  1.50000000E+00  8.00000000E-01  1.30000000E+00  1.70000000E+00  1.30000000E+00
  1.30000000E+00  1.50000000E+00  8.00000000E-01  1.30000000E+00  1.70000000E+00
  1.30000000E+00  1.30000000E+00  1.50000000E+00  8.00000000E-01  1.30000000E+00
  1.70000000E+00  1.30000000E+00  1.30000000E+00  1.50000000E+00  8.00000000E-01
  1.30000000E+00  1.70000000E+00  1.30000000E+00  1.30000000E+00  1.50000000E+00
  8.00000000E-01  1.30000000E+00  1.70000000E+00  1.30000000E+00  1.30000000E+00
  1.50000000E+00  8.00000000E-01  1.30000000E+00  1.70000000E+00  1.30000000E+00
  1.30000000E+00  1.50000000E+00  8.00000000E-01  1.30000000E+00  1.70000000E+00
  1.30000000E+00  1.30000000E+00  1.50000000E+00  8.00000000E-01  1.30000000E+00
  1.70000000E+00  1.30000000E+00  1.30000000E+00  1.50000000E+00  8.00000000E-01
  1.30000000E+00  1.70000000E+00  1.30000000E+00  1.30000000E+00  1.50000000E+00
  8.00000000E-01  1.30000000E+00  1.70000000E+00  1.30000000E+00  1.30000000E+00
  1.50000000E+00  8.00000000E-01  1.30000000E+00  1.70000000E+00  1.30000000E+00
  1.30000000E+00  1.50000000E+00  8.00000000E-01  1.30000000E+00  1.70000000E+00
  1.30000000E+00  1.30000000E+00  1.50000000E+00  8.00000000E-01  1.30000000E+00
  1.70000000E+00  1.30000000E+00  1.30000000E+00  1.50000000E+00  8.00000000E-01
  1.30000000E+00  1.70000000E+00  1.30000000E+00  1.30000000E+00  1.50000000E+00
  8.00000000E-01  1.30000000E+00  1.70000000E+00  1.30000000E+00  1.30000000E+00
  1.50000000E+00  8.00000000E-01  1.30000000E+00  1.70000000E+00  1.30000000E+00
  1.30000000E+00  1.50000000E+00  8.00000000E-01  1.30000000E+00  1.70000000E+00
  1.30000000E+00  1.30000000E+00  1.50000000E+00  8.00000000E-01  1.30000000E+00
  1.70000000E+00  1.30000000E+00  1.30000000E+00  1.50000000E+00  8.00000000E-01
  1.30000000E+00  1.70000000E+00  1.30000000E+00  1.30000000E+00  1.50000000E+00
  8.00000000E-01  1.30000000E+00  1.70000000E+00  1.30000000E+00  1.30000000E+00
  1.50000000E+00  8.00000000E-01  1.30000000E+00  1.70000000E+00  1.30000000E+00
  1.30000000E+00  1.50000000E+00  8.00000000E-01  1.30000000E+00  1.70000000E+00
  1.30000000E+00  1.30000000E+00  1.50000000E+00  8.00000000E-01  1.30000000E+00
  1.70000000E+00  1.30000000E+00  1.30000000E+00  1.50000000E+00  8.00000000E-01
  1.30000000E+00  1.70000000E+00  1.30000000E+00  1.30000000E+00  1.50000000E+00
  8.00000000E-01  1.30000000E+00  1.70000000E+00  1.30000000E+00  1.30000000E+00
  1.50000000E+00  8.00000000E-01  1.30000000E+00  1.70000000E+00  1.30000000E+00
  1.30000000E+00  1.50000000E+00  8.00000000E-01  1.30000000E+00  1.70000000E+00
  1.30000000E+00  1.30000000E+00  1.50000000E+00  8.00000000E-01  1.30000000E+00
  1.70000000E+00  1.30000000E+00  1.30000000E+00  1.50000000E+00  8.00000000E-01
  1.30000000E+00  1.70000000E+00  1.30000000E+00  1.30000000E+00  1.50000000E+00
  8.00000000E-01  1.30000000E+00  1.70000000E+00  1.30000000E+00  1.30000000E+00
  1.50000000E+00  8.00000000E-01  1.30000000E+00  1.70000000E+00  1.30000000E+00
  1.30000000E+00  1.50000000E+00  8.00000000E-01  1.30000000E+00  1.70000000E+00
  1.30000000E+00  1.30000000E+00  1.50000000E+00  8.00000000E-01  1.30000000E+00
  1.70000000E+00  1.30000000E+00  1.30000000E+00  1.50000000E+00  8.00000000E-01
  1.30000000E+00  1.70000000E+00  1.30000000E+00  1.30000000E+00  1.50000000E+00
  8.00000000E-01  1.30000000E+00  1.70000000E+00  1.30000000E+00  1.30000000E+00
  1.50000000E+00  8.00000000E-01  1.30000000E+00  1.70000000E+00  1.30000000E+00
  1.30000000E+00  1.50000000E+00  8.00000000E-01  1.30000000E+00  1.70000000E+00
  1.30000000E+00  1.30000000E+00  1.50000000E+00  8.00000000E-01  1.30000000E+00
  1.70000000E+00  1.30000000E+00  1.30000000E+00  1.50000000E+00  8.00000000E-01
  1.30000000E+00  1.70000000E+00  1.30000000E+00  1.30000000E+00  1.50000000E+00
  8.00000000E-01  1.30000000E+00  1.70000000E+00  1.30000000E+00  1.30000000E+00
  1.50000000E+00  8.00000000E-01  1.30000000E+00  1.70000000E+00  1.30000000E+00
  1.30000000E+00  1.50000000E+00  8.00000000E-01  1.30000000E+00  1.70000000E+00
  1.30000000E+00  1.30000000E+00  1.50000000E+00  8.00000000E-01  1.30000000E+00
  1.70000000E+00  1.30000000E+00  1.30000000E+00  1.50000000E+00  8.00000000E-01
  1.30000000E+00  1.70000000E+00  1.30000000E+00  1.30000000E+00  1.50000000E+00
  8.00000000E-01  1.30000000E+00  1.70000000E+00  1.30000000E+00  1.30000000E+00
  1.50000000E+00  8.00000000E-01  1.30000000E+00  1.70000000E+00  1.30000000E+00
  1.30000000E+00  1.50000000E+00  8.00000000E-01  1.30000000E+00  1.70000000E+00
  1.30000000E+00  1.30000000E+00  1.50000000E+00  8.00000000E-01  1.30000000E+00
  1.70000000E+00  1.30000000E+00  1.30000000E+00  1.50000000E+00  8.00000000E-01
  1.30000000E+00  1.70000000E+00  1.30000000E+00  1.30000000E+00  1.50000000E+00
  8.00000000E-01  1.30000000E+00  1.70000000E+00  1.30000000E+00  1.30000000E+00
  1.50000000E+00  8.00000000E-01  1.30000000E+00  1.70000000E+00  1.30000000E+00
  1.30000000E+00  1.50000000E+00  8.00000000E-01  1.30000000E+00  1.70000000E+00
  1.30000000E+00  1.30000000E+00  1.50000000E+00  8.00000000E-01  1.30000000E+00
  1.70000000E+00  1.30000000E+00  1.30000000E+00  1.50000000E+00  8.00000000E-01
  1.30000000E+00  1.70000000E+00  1.30000000E+00  1.30000000E+00  1.50000000E+00
  8.00000000E-01  1.30000000E+00  1.70000000E+00  1.30000000E+00  1.30000000E+00
  1.50000000E+00  8.00000000E-01  1.30000000E+00  1.70000000E+00  1.30000000E+00
  1.30000000E+00  1.50000000E+00  8.00000000E-01  1.30000000E+00  1.70000000E+00
  1.30000000E+00  1.30000000E+00  1.50000000E+00  8.00000000E-01  1.30000000E+00
  1.70000000E+00  1.30000000E+00  1.30000000E+00  1.50000000E+00  8.00000000E-01
  1.30000000E+00  1.70000000E+00  1.30000000E+00  1.30000000E+00  1.50000000E+00
  8.00000000E-01  1.30000000E+00  1.70000000E+00  1.30000000E+00  1.30000000E+00
  1.50000000E+00  8.00000000E-01  1.30000000E+00  1.70000000E+00  1.30000000E+00
  1.30000000E+00  1.50000000E+00  8.00000000E-01  1.30000000E+00  1.70000000E+00
  1.30000000E+00  1.30000000E+00  1.50000000E+00  8.00000000E-01  1.30000000E+00
  1.70000000E+00  1.30000000E+00  1.30000000E+00  1.50000000E+00  8.00000000E-01
  1.30000000E+00  1.70000000E+00  1.30000000E+00  1.30000000E+00  1.50000000E+00
  8.00000000E-01  1.30000000E+00  1.70000000E+00  1.30000000E+00  1.30000000E+00
  1.50000000E+00  8.00000000E-01  1.30000000E+00  1.70000000E+00  1.30000000E+00
  1.30000000E+00  1.50000000E+00  8.00000000E-01  1.30000000E+00  1.70000000E+00
  1.30000000E+00  1.30000000E+00  1.50000000E+00  8.00000000E-01  1.30000000E+00
  1.70000000E+00  1.30000000E+00  1.30000000E+00  1.50000000E+00  8.00000000E-01
  1.30000000E+00  1.70000000E+00  1.30000000E+00  1.30000000E+00  1.50000000E+00
  8.00000000E-01  1.30000000E+00  1.70000000E+00  1.30000000E+00  1.30000000E+00
  1.50000000E+00  8.00000000E-01  1.30000000E+00  1.70000000E+00  1.30000000E+00
  1.30000000E+00  1.50000000E+00  8.00000000E-01  1.30000000E+00  1.70000000E+00
  1.30000000E+00  1.30000000E+00  1.50000000E+00  8.00000000E-01  1.30000000E+00
  1.70000000E+00  1.30000000E+00  1.30000000E+00  1.50000000E+00  8.00000000E-01
  1.30000000E+00  1.70000000E+00  1.30000000E+00  1.30000000E+00  1.50000000E+00
  8.00000000E-01  1.30000000E+00  1.70000000E+00  1.30000000E+00  1.30000000E+00
  1.50000000E+00  8.00000000E-01  1.30000000E+00  1.70000000E+00  1.30000000E+00
  1.30000000E+00  1.50000000E+00  8.00000000E-01  1.30000000E+00  1.70000000E+00
  1.30000000E+00  1.30000000E+00  1.50000000E+00  8.00000000E-01  1.30000000E+00
  1.70000000E+00  1.30000000E+00  1.30000000E+00  1.50000000E+00  8.00000000E-01
  1.30000000E+00  1.70000000E+00  1.30000000E+00  1.30000000E+00  1.50000000E+00
  8.00000000E-01  1.30000000E+00  1.70000000E+00  1.30000000E+00  1.30000000E+00
  1.50000000E+00  8.00000000E-01  1.30000000E+00  1.70000000E+00  1.30000000E+00
  1.30000000E+00  1.50000000E+00  8.00000000E-01  1.30000000E+00  1.70000000E+00
  1.30000000E+00  1.30000000E+00  1.50000000E+00  8.00000000E-01  1.30000000E+00
  1.70000000E+00  1.30000000E+00  1.30000000E+00  1.50000000E+00  8.00000000E-01
  1.30000000E+00  1.70000000E+00  1.30000000E+00  1.30000000E+00  1.50000000E+00
  8.00000000E-01  1.30000000E+00  1.70000000E+00  1.30000000E+00  1.30000000E+00
  1.50000000E+00  8.00000000E-01  1.30000000E+00  1.70000000E+00  1.30000000E+00
  1.30000000E+00  1.50000000E+00  8.00000000E-01  1.30000000E+00  1.70000000E+00
  1.30000000E+00  1.30000000E+00  1.50000000E+00  8.00000000E-01  1.30000000E+00
  1.70000000E+00  1.30000000E+00  1.30000000E+00  1.50000000E+00  8.00000000E-01
  1.30000000E+00  1.70000000E+00  1.30000000E+00  1.30000000E+00  1.50000000E+00
  8.00000000E-01  1.30000000E+00  1.70000000E+00  1.30000000E+00  1.30000000E+00
  1.50000000E+00  8.00000000E-01  1.30000000E+00  1.70000000E+00  1.30000000E+00
  1.30000000E+00  1.50000000E+00  8.00000000E-01  1.30000000E+00  1.70000000E+00
  1.30000000E+00  1.30000000E+00  1.50000000E+00  8.00000000E-01  1.30000000E+00
  1.70000000E+00  1.30000000E+00  1.30000000E+00  1.50000000E+00  8.00000000E-01
  1.30000000E+00  1.70000000E+00  1.30000000E+00  1.30000000E+00  1.50000000E+00
  8.00000000E-01  1.30000000E+00  1.70000000E+00  1.30000000E+00  1.30000000E+00
  1.50000000E+00  8.00000000E-01  1.30000000E+00  1.70000000E+00  1.30000000E+00
  1.30000000E+00  1.50000000E+00  8.00000000E-01  1.30000000E+00  1.70000000E+00
  1.30000000E+00  1.30000000E+00  1.50000000E+00  8.00000000E-01  1.30000000E+00
  1.70000000E+00  1.30000000E+00  1.30000000E+00  1.50000000E+00  8.00000000E-01
  1.30000000E+00  1.70000000E+00  1.30000000E+00  1.30000000E+00  1.50000000E+00
  8.00000000E-01  1.30000000E+00  1.70000000E+00  1.30000000E+00  1.30000000E+00
  1.50000000E+00  8.00000000E-01  1.30000000E+00  1.70000000E+00  1.30000000E+00
  1.30000000E+00  1.50000000E+00  8.00000000E-01  1.30000000E+00  1.70000000E+00
  1.30000000E+00  1.30000000E+00  1.50000000E+00  8.00000000E-01  1.30000000E+00
  1.70000000E+00  1.30000000E+00  1.30000000E+00  1.50000000E+00  8.00000000E-01
  1.30000000E+00  1.70000000E+00  1.30000000E+00  1.30000000E+00  1.50000000E+00
  8.00000000E-01  1.30000000E+00  1.70000000E+00  1.30000000E+00  1.30000000E+00
  1.50000000E+00  8.00000000E-01  1.30000000E+00  1.70000000E+00  1.30000000E+00
  1.30000000E+00  1.50000000E+00  8.00000000E-01  1.30000000E+00  1.70000000E+00
  1.30000000E+00  1.30000000E+00  1.50000000E+00  8.00000000E-01  1.30000000E+00
  1.70000000E+00  1.30000000E+00  1.30000000E+00  1.50000000E+00  8.00000000E-01
  1.30000000E+00  1.70000000E+00  1.30000000E+00  1.30000000E+00  1.50000000E+00
  8.00000000E-01  1.30000000E+00  1.70000000E+00  1.30000000E+00  1.30000000E+00
  1.50000000E+00  8.00000000E-01  1.30000000E+00  1.70000000E+00  1.30000000E+00
  1.30000000E+00  1.50000000E+00  8.00000000E-01  1.30000000E+00  1.70000000E+00
  1.30000000E+00  1.30000000E+00  1.50000000E+00  8.00000000E-01  1.30000000E+00
  1.70000000E+00  1.30000000E+00  1.30000000E+00  1.50000000E+00  8.00000000E-01
  1.30000000E+00  1.70000000E+00  1.30000000E+00  1.30000000E+00  1.50000000E+00
  8.00000000E-01  1.30000000E+00  1.70000000E+00  1.30000000E+00  1.30000000E+00
  1.50000000E+00  8.00000000E-01  1.30000000E+00  1.70000000E+00  1.30000000E+00
  1.30000000E+00  1.50000000E+00  8.00000000E-01  1.30000000E+00  1.70000000E+00
  1.30000000E+00  1.30000000E+00  1.50000000E+00  8.00000000E-01  1.30000000E+00
  1.70000000E+00  1.30000000E+00  1.30000000E+00  1.50000000E+00  8.00000000E-01
  1.30000000E+00  1.70000000E+00  1.30000000E+00  1.30000000E+00  1.50000000E+00
  8.00000000E-01  1.30000000E+00  1.70000000E+00  1.30000000E+00  1.30000000E+00
  1.50000000E+00  8.00000000E-01  1.30000000E+00  1.70000000E+00  1.30000000E+00
  1.30000000E+00  1.50000000E+00  8.00000000E-01  1.30000000E+00  1.70000000E+00
  1.30000000E+00  1.30000000E+00  1.50000000E+00  8.00000000E-01  1.30000000E+00
  1.70000000E+00  1.30000000E+00  1.30000000E+00  1.50000000E+00  8.00000000E-01
  1.30000000E+00  1.70000000E+00  1.30000000E+00  1.30000000E+00  1.50000000E+00
  8.00000000E-01  1.30000000E+00  1.70000000E+00  1.30000000E+00  1.30000000E+00
  1.50000000E+00  8.00000000E-01  1.30000000E+00  1.70000000E+00  1.30000000E+00
  1.30000000E+00  1.50000000E+00  8.00000000E-01  1.30000000E+00  1.70000000E+00
  1.30000000E+00  1.30000000E+00  1.50000000E+00  8.00000000E-01  1.30000000E+00
  1.70000000E+00  1.30000000E+00  1.30000000E+00  1.50000000E+00  8.00000000E-01
  1.30000000E+00  1.70000000E+00  1.30000000E+00  1.30000000E+00  1.50000000E+00
  8.00000000E-01  1.30000000E+00  1.70000000E+00  1.30000000E+00  1.30000000E+00
  1.50000000E+00  8.00000000E-01  1.30000000E+00  1.70000000E+00  1.30000000E+00
  1.30000000E+00  1.50000000E+00  8.00000000E-01  1.30000000E+00  1.70000000E+00
  1.30000000E+00  1.30000000E+00  1.50000000E+00  8.00000000E-01  1.30000000E+00
  1.70000000E+00  1.30000000E+00  1.30000000E+00  1.50000000E+00  8.00000000E-01
  1.30000000E+00  1.70000000E+00  1.30000000E+00  1.30000000E+00  1.50000000E+00
  8.00000000E-01  1.30000000E+00  1.70000000E+00  1.30000000E+00  1.30000000E+00
  1.50000000E+00  8.00000000E-01  1.30000000E+00  1.70000000E+00  1.30000000E+00
  1.30000000E+00  1.50000000E+00  8.00000000E-01  1.30000000E+00  1.70000000E+00
  1.30000000E+00  1.30000000E+00  1.50000000E+00  8.00000000E-01  1.30000000E+00
  1.70000000E+00  1.30000000E+00  1.30000000E+00  1.50000000E+00  8.00000000E-01
  1.30000000E+00  1.70000000E+00  1.30000000E+00  1.30000000E+00  1.50000000E+00
  8.00000000E-01  1.30000000E+00  1.70000000E+00  1.30000000E+00  1.30000000E+00
  1.50000000E+00  8.00000000E-01  1.30000000E+00  1.70000000E+00  1.30000000E+00
  1.30000000E+00  1.50000000E+00  8.00000000E-01  1.30000000E+00  1.70000000E+00
  1.30000000E+00  1.30000000E+00  1.50000000E+00  8.00000000E-01  1.30000000E+00
  1.70000000E+00  1.30000000E+00  1.30000000E+00  1.50000000E+00  8.00000000E-01
  1.30000000E+00  1.70000000E+00  1.30000000E+00  1.30000000E+00  1.50000000E+00
  8.00000000E-01  1.30000000E+00  1.70000000E+00  1.30000000E+00  1.30000000E+00
  1.50000000E+00  8.00000000E-01  1.30000000E+00  1.70000000E+00  1.30000000E+00
  1.30000000E+00  1.50000000E+00  8.00000000E-01  1.30000000E+00  1.70000000E+00
  1.30000000E+00  1.30000000E+00  1.50000000E+00  8.00000000E-01  1.30000000E+00
  1.70000000E+00  1.30000000E+00  1.30000000E+00  1.50000000E+00  8.00000000E-01
  1.30000000E+00  1.70000000E+00  1.30000000E+00  1.30000000E+00  1.50000000E+00
  8.00000000E-01  1.30000000E+00  1.70000000E+00  1.30000000E+00  1.30000000E+00
  1.50000000E+00  8.00000000E-01  1.30000000E+00  1.70000000E+00  1.30000000E+00
  1.30000000E+00  1.50000000E+00  8.00000000E-01  1.30000000E+00  1.70000000E+00
  1.30000000E+00  1.30000000E+00  1.50000000E+00  8.00000000E-01  1.30000000E+00
  1.70000000E+00  1.30000000E+00  1.30000000E+00  1.50000000E+00  8.00000000E-01
  1.30000000E+00  1.70000000E+00  1.30000000E+00  1.30000000E+00  1.50000000E+00
  8.00000000E-01  1.30000000E+00  1.70000000E+00  1.30000000E+00  1.30000000E+00
  1.50000000E+00  8.00000000E-01  1.30000000E+00  1.70000000E+00  1.30000000E+00
  1.30000000E+00  1.50000000E+00  8.00000000E-01  1.30000000E+00  1.70000000E+00
  1.30000000E+00  1.30000000E+00  1.50000000E+00  8.00000000E-01  1.30000000E+00
  1.70000000E+00  1.30000000E+00  1.30000000E+00  1.50000000E+00  8.00000000E-01
  1.30000000E+00  1.70000000E+00  1.30000000E+00  1.30000000E+00  1.50000000E+00
  8.00000000E-01  1.30000000E+00  1.70000000E+00  1.30000000E+00  1.30000000E+00
  1.50000000E+00  8.00000000E-01  1.30000000E+00  1.70000000E+00  1.30000000E+00
  1.30000000E+00  1.50000000E+00  8.00000000E-01  1.30000000E+00  1.70000000E+00
  1.30000000E+00  1.30000000E+00  1.50000000E+00  8.00000000E-01  1.30000000E+00
  1.70000000E+00  1.30000000E+00  1.30000000E+00  1.50000000E+00  8.00000000E-01
  1.30000000E+00  1.70000000E+00  1.30000000E+00  1.30000000E+00  1.50000000E+00
  8.00000000E-01  1.30000000E+00  1.70000000E+00  1.30000000E+00  1.30000000E+00
  1.50000000E+00  8.00000000E-01  1.30000000E+00  1.70000000E+00  1.30000000E+00
  1.30000000E+00  1.50000000E+00  8.00000000E-01  1.30000000E+00  1.70000000E+00
  1.30000000E+00  1.30000000E+00  1.50000000E+00  8.00000000E-01  1.30000000E+00
  1.70000000E+00  1.30000000E+00  1.30000000E+00  1.50000000E+00  8.00000000E-01
  1.30000000E+00  1.70000000E+00  1.30000000E+00  1.30000000E+00  1.50000000E+00
  8.00000000E-01  1.30000000E+00  1.70000000E+00  1.30000000E+00  1.30000000E+00
  1.50000000E+00  8.00000000E-01  1.30000000E+00  1.70000000E+00  1.30000000E+00
  1.30000000E+00  1.50000000E+00  8.00000000E-01  1.30000000E+00  1.70000000E+00
  1.30000000E+00  1.30000000E+00  1.50000000E+00  8.00000000E-01  1.30000000E+00
  1.70000000E+00  1.30000000E+00  1.30000000E+00  1.50000000E+00  8.00000000E-01
  1.30000000E+00  1.70000000E+00  1.30000000E+00  1.30000000E+00  1.50000000E+00
  8.00000000E-01  1.30000000E+00  1.70000000E+00  1.30000000E+00  1.30000000E+00
  1.50000000E+00  8.00000000E-01  1.30000000E+00  1.70000000E+00  1.30000000E+00
  1.30000000E+00  1.50000000E+00  8.00000000E-01  1.30000000E+00  1.70000000E+00
  1.30000000E+00  1.30000000E+00  1.50000000E+00  8.00000000E-01  1.30000000E+00
  1.70000000E+00  1.30000000E+00  1.30000000E+00  1.50000000E+00  8.00000000E-01
  1.30000000E+00  1.70000000E+00  1.30000000E+00  1.30000000E+00  1.50000000E+00
  8.00000000E-01  1.30000000E+00  1.70000000E+00  1.30000000E+00  1.30000000E+00
  1.50000000E+00  8.00000000E-01  1.30000000E+00  1.70000000E+00  1.30000000E+00
  1.30000000E+00  1.50000000E+00  8.00000000E-01  1.30000000E+00  1.70000000E+00
  1.30000000E+00  1.30000000E+00  1.50000000E+00  8.00000000E-01  1.30000000E+00
  1.70000000E+00  1.30000000E+00  1.30000000E+00  1.50000000E+00  8.00000000E-01
  1.30000000E+00  1.70000000E+00  1.30000000E+00  1.30000000E+00  1.50000000E+00
  8.00000000E-01  1.30000000E+00  1.70000000E+00  1.30000000E+00  1.30000000E+00
  1.50000000E+00  8.00000000E-01  1.30000000E+00  1.70000000E+00  1.30000000E+00
  1.30000000E+00  1.50000000E+00  8.00000000E-01  1.30000000E+00  1.70000000E+00
  1.30000000E+00  1.30000000E+00  1.50000000E+00  8.00000000E-01  1.30000000E+00
  1.70000000E+00  1.30000000E+00  1.30000000E+00  1.50000000E+00  8.00000000E-01
  1.30000000E+00  1.70000000E+00  1.30000000E+00  1.30000000E+00  1.50000000E+00
  8.00000000E-01  1.30000000E+00  1.70000000E+00  1.30000000E+00  1.30000000E+00
  1.50000000E+00  8.00000000E-01  1.30000000E+00  1.70000000E+00  1.30000000E+00
  1.30000000E+00  1.50000000E+00  8.00000000E-01  1.30000000E+00  1.70000000E+00
  1.30000000E+00  1.30000000E+00  1.50000000E+00  8.00000000E-01  1.30000000E+00
  1.70000000E+00  1.30000000E+00  1.30000000E+00  1.50000000E+00  8.00000000E-01
  1.30000000E+00  1.70000000E+00  1.30000000E+00  1.30000000E+00  1.50000000E+00
  8.00000000E-01  1.30000000E+00  1.70000000E+00  1.30000000E+00  1.30000000E+00
  1.50000000E+00  8.00000000E-01  1.30000000E+00  1.70000000E+00  1.30000000E+00
  1.30000000E+00  1.50000000E+00  8.00000000E-01  1.30000000E+00  1.70000000E+00
  1.30000000E+00  1.30000000E+00  1.50000000E+00  8.00000000E-01  1.30000000E+00
  1.70000000E+00  1.30000000E+00  1.30000000E+00  1.50000000E+00  8.00000000E-01
  1.30000000E+00  1.70000000E+00  1.30000000E+00  1.30000000E+00  1.50000000E+00
  8.00000000E-01  1.30000000E+00  1.70000000E+00  1.30000000E+00  1.30000000E+00
  1.50000000E+00  8.00000000E-01  1.30000000E+00  1.70000000E+00  1.30000000E+00
  1.30000000E+00  1.50000000E+00  8.00000000E-01  1.30000000E+00  1.70000000E+00
  1.30000000E+00  1.30000000E+00  1.50000000E+00  8.00000000E-01  1.30000000E+00
  1.70000000E+00  1.30000000E+00  1.30000000E+00  1.50000000E+00  8.00000000E-01
  1.30000000E+00  1.70000000E+00  1.30000000E+00  1.30000000E+00  1.50000000E+00
  8.00000000E-01  1.30000000E+00  1.70000000E+00  1.30000000E+00  1.30000000E+00
  1.50000000E+00  8.00000000E-01  1.30000000E+00  1.70000000E+00  1.30000000E+00
  1.30000000E+00  1.50000000E+00  8.00000000E-01  1.30000000E+00  1.70000000E+00
  1.30000000E+00  1.30000000E+00  1.50000000E+00  8.00000000E-01  1.30000000E+00
  1.70000000E+00  1.30000000E+00  1.30000000E+00  1.50000000E+00  8.00000000E-01
  1.30000000E+00  1.70000000E+00  1.30000000E+00  1.30000000E+00  1.50000000E+00
  8.00000000E-01  1.30000000E+00  1.70000000E+00  1.30000000E+00  1.30000000E+00
  1.50000000E+00  8.00000000E-01  1.30000000E+00  1.70000000E+00  1.30000000E+00
  1.30000000E+00  1.50000000E+00  8.00000000E-01  1.30000000E+00  1.70000000E+00
  1.30000000E+00  1.30000000E+00  1.50000000E+00  8.00000000E-01  1.30000000E+00
  1.70000000E+00  1.30000000E+00  1.30000000E+00  1.50000000E+00  8.00000000E-01
  1.30000000E+00  1.70000000E+00  1.30000000E+00  1.30000000E+00  1.50000000E+00
  8.00000000E-01  1.30000000E+00  1.70000000E+00  1.30000000E+00  1.30000000E+00
  1.50000000E+00  8.00000000E-01  1.30000000E+00  1.70000000E+00  1.30000000E+00
  1.30000000E+00  1.50000000E+00  8.00000000E-01  1.30000000E+00  1.70000000E+00
  1.30000000E+00  1.30000000E+00  1.50000000E+00  8.00000000E-01  1.30000000E+00
  1.70000000E+00  1.30000000E+00  1.30000000E+00  1.50000000E+00  8.00000000E-01
  1.30000000E+00  1.70000000E+00  1.30000000E+00  1.30000000E+00  1.50000000E+00
  8.00000000E-01  1.30000000E+00  1.70000000E+00  1.30000000E+00  1.30000000E+00
  1.50000000E+00  8.00000000E-01  1.30000000E+00  1.70000000E+00  1.30000000E+00
  1.30000000E+00  1.50000000E+00  8.00000000E-01  1.30000000E+00  1.70000000E+00
  1.30000000E+00  1.30000000E+00  1.50000000E+00  8.00000000E-01  1.30000000E+00
  1.70000000E+00  1.30000000E+00  1.30000000E+00  1.50000000E+00  8.00000000E-01
  1.30000000E+00  1.70000000E+00  1.30000000E+00  1.30000000E+00  1.50000000E+00
  8.00000000E-01  1.30000000E+00  1.70000000E+00  1.30000000E+00  1.30000000E+00
  1.50000000E+00  8.00000000E-01  1.30000000E+00  1.70000000E+00  1.30000000E+00
  1.30000000E+00  1.50000000E+00  8.00000000E-01  1.30000000E+00  1.70000000E+00
  1.30000000E+00  1.30000000E+00  1.50000000E+00  8.00000000E-01  1.30000000E+00
  1.70000000E+00  1.30000000E+00  1.30000000E+00  1.50000000E+00  8.00000000E-01
  1.30000000E+00  1.70000000E+00  1.30000000E+00  1.30000000E+00  1.50000000E+00
  8.00000000E-01  1.30000000E+00  1.70000000E+00  1.30000000E+00  1.30000000E+00
  1.50000000E+00  8.00000000E-01  1.30000000E+00  1.70000000E+00  1.30000000E+00
  1.30000000E+00  1.50000000E+00  8.00000000E-01  1.30000000E+00  1.70000000E+00
  1.30000000E+00  1.30000000E+00  1.50000000E+00  8.00000000E-01  1.30000000E+00
  1.70000000E+00  1.30000000E+00  1.30000000E+00  1.50000000E+00  8.00000000E-01
  1.30000000E+00  1.70000000E+00  1.30000000E+00  1.30000000E+00  1.50000000E+00
  8.00000000E-01  1.30000000E+00  1.70000000E+00  1.30000000E+00  1.30000000E+00
  1.50000000E+00  8.00000000E-01  1.30000000E+00  1.70000000E+00  1.30000000E+00
  1.30000000E+00  1.50000000E+00  8.00000000E-01  1.30000000E+00  1.70000000E+00
  1.30000000E+00  1.30000000E+00  1.50000000E+00  8.00000000E-01  1.30000000E+00
  1.70000000E+00  1.30000000E+00  1.30000000E+00  1.50000000E+00  8.00000000E-01
  1.30000000E+00  1.70000000E+00  1.30000000E+00  1.30000000E+00  1.50000000E+00
  8.00000000E-01  1.30000000E+00  1.70000000E+00  1.30000000E+00  1.30000000E+00
  1.50000000E+00  8.00000000E-01  1.30000000E+00  1.70000000E+00  1.30000000E+00
  1.30000000E+00  1.50000000E+00  8.00000000E-01  1.30000000E+00  1.70000000E+00
  1.30000000E+00  1.30000000E+00  1.50000000E+00  8.00000000E-01  1.30000000E+00
  1.70000000E+00  1.30000000E+00  1.30000000E+00  1.50000000E+00  8.00000000E-01
  1.30000000E+00  1.70000000E+00  1.30000000E+00  1.30000000E+00  1.50000000E+00
  8.00000000E-01  1.30000000E+00  1.70000000E+00  1.30000000E+00  1.30000000E+00
  1.50000000E+00  8.00000000E-01  1.30000000E+00  1.70000000E+00  1.30000000E+00
  1.30000000E+00  1.50000000E+00  8.00000000E-01  1.30000000E+00  1.70000000E+00
  1.30000000E+00  1.30000000E+00  1.50000000E+00  8.00000000E-01  1.30000000E+00
  1.70000000E+00  1.30000000E+00  1.30000000E+00  1.50000000E+00  8.00000000E-01
  1.30000000E+00  1.70000000E+00  1.30000000E+00  1.30000000E+00  1.50000000E+00
  8.00000000E-01  1.30000000E+00  1.70000000E+00  1.30000000E+00  1.30000000E+00
  1.50000000E+00  8.00000000E-01  1.30000000E+00  1.70000000E+00  1.30000000E+00
  1.30000000E+00  1.50000000E+00  8.00000000E-01  1.30000000E+00  1.70000000E+00
  1.30000000E+00  1.30000000E+00  1.50000000E+00  8.00000000E-01  1.30000000E+00
  1.70000000E+00  1.30000000E+00  1.30000000E+00  1.50000000E+00  8.00000000E-01
  1.30000000E+00  1.70000000E+00  1.30000000E+00  1.30000000E+00  1.50000000E+00
  8.00000000E-01  1.30000000E+00  1.70000000E+00  1.30000000E+00  1.30000000E+00
  1.50000000E+00  8.00000000E-01  1.30000000E+00  1.70000000E+00  1.30000000E+00
  1.30000000E+00  1.50000000E+00  8.00000000E-01  1.30000000E+00  1.70000000E+00
  1.30000000E+00  1.30000000E+00  1.50000000E+00  8.00000000E-01  1.30000000E+00
  1.70000000E+00  1.30000000E+00  1.30000000E+00  1.50000000E+00  8.00000000E-01
  1.30000000E+00  1.70000000E+00  1.30000000E+00  1.30000000E+00  1.50000000E+00
  8.00000000E-01  1.30000000E+00  1.70000000E+00  1.30000000E+00  1.30000000E+00
  1.50000000E+00  8.00000000E-01  1.30000000E+00  1.70000000E+00  1.30000000E+00
  1.30000000E+00  1.50000000E+00  8.00000000E-01  1.30000000E+00  1.70000000E+00
  1.30000000E+00  1.30000000E+00  1.50000000E+00  8.00000000E-01  1.30000000E+00
  1.70000000E+00  1.30000000E+00  1.30000000E+00  1.50000000E+00  8.00000000E-01
  1.30000000E+00  1.70000000E+00  1.30000000E+00  1.30000000E+00  1.50000000E+00
  8.00000000E-01  1.30000000E+00  1.70000000E+00  1.30000000E+00  1.30000000E+00
  1.50000000E+00  8.00000000E-01  1.30000000E+00  1.70000000E+00  1.30000000E+00
  1.30000000E+00  1.50000000E+00  8.00000000E-01  1.30000000E+00  1.70000000E+00
  1.30000000E+00  1.30000000E+00  1.50000000E+00  8.00000000E-01  1.30000000E+00
  1.70000000E+00  1.30000000E+00  1.30000000E+00  1.50000000E+00  8.00000000E-01
  1.30000000E+00  1.70000000E+00  1.30000000E+00  1.30000000E+00  1.50000000E+00
  8.00000000E-01  1.30000000E+00  1.70000000E+00  1.30000000E+00  1.30000000E+00
  1.50000000E+00  8.00000000E-01  1.30000000E+00  1.70000000E+00  1.30000000E+00
  1.30000000E+00  1.50000000E+00  8.00000000E-01  1.30000000E+00  1.70000000E+00
  1.30000000E+00  1.30000000E+00  1.50000000E+00  8.00000000E-01  1.30000000E+00
  1.70000000E+00  1.30000000E+00  1.30000000E+00  1.50000000E+00  8.00000000E-01
  1.30000000E+00  1.70000000E+00  1.30000000E+00  1.30000000E+00  1.50000000E+00
  8.00000000E-01  1.30000000E+00  1.70000000E+00  1.30000000E+00  1.30000000E+00
  1.50000000E+00  8.00000000E-01  1.30000000E+00  1.70000000E+00  1.30000000E+00
  1.30000000E+00  1.50000000E+00  8.00000000E-01  1.30000000E+00  1.70000000E+00
  1.30000000E+00  1.30000000E+00  1.50000000E+00  8.00000000E-01  1.30000000E+00
  1.70000000E+00  1.30000000E+00  1.30000000E+00  1.50000000E+00  8.00000000E-01
  1.30000000E+00  1.70000000E+00  1.30000000E+00  1.30000000E+00  1.50000000E+00
  8.00000000E-01  1.30000000E+00  1.70000000E+00  1.30000000E+00  1.30000000E+00
  1.50000000E+00  8.00000000E-01  1.30000000E+00  1.70000000E+00  1.30000000E+00
  1.30000000E+00  1.50000000E+00  8.00000000E-01  1.30000000E+00  1.70000000E+00
  1.30000000E+00  1.30000000E+00  1.50000000E+00  8.00000000E-01  1.30000000E+00
  1.70000000E+00  1.30000000E+00  1.30000000E+00  1.50000000E+00  8.00000000E-01
  1.30000000E+00  1.70000000E+00  1.30000000E+00  1.30000000E+00  1.50000000E+00
  8.00000000E-01  1.30000000E+00  1.70000000E+00  1.30000000E+00  1.30000000E+00
  1.50000000E+00  8.00000000E-01  1.30000000E+00  1.70000000E+00  1.30000000E+00
  1.30000000E+00  1.50000000E+00  8.00000000E-01  1.30000000E+00  1.70000000E+00
  1.30000000E+00  1.30000000E+00  1.50000000E+00  8.00000000E-01  1.30000000E+00
  1.70000000E+00  1.30000000E+00  1.30000000E+00  1.50000000E+00  8.00000000E-01
  1.30000000E+00  1.70000000E+00  1.30000000E+00  1.30000000E+00  1.50000000E+00
  8.00000000E-01  1.30000000E+00  1.70000000E+00  1.30000000E+00  1.30000000E+00
  1.50000000E+00  8.00000000E-01  1.30000000E+00  1.70000000E+00  1.30000000E+00
  1.30000000E+00  1.50000000E+00  8.00000000E-01  1.30000000E+00  1.70000000E+00
  1.30000000E+00  1.30000000E+00  1.50000000E+00  8.00000000E-01  1.30000000E+00
  1.70000000E+00  1.30000000E+00  1.30000000E+00  1.50000000E+00  8.00000000E-01
  1.30000000E+00  1.70000000E+00  1.30000000E+00  1.30000000E+00  1.50000000E+00
  8.00000000E-01  1.30000000E+00  1.70000000E+00  1.30000000E+00  1.30000000E+00
  1.50000000E+00  8.00000000E-01  1.30000000E+00  1.70000000E+00  1.30000000E+00
  1.30000000E+00  1.50000000E+00  8.00000000E-01  1.30000000E+00  1.70000000E+00
  1.30000000E+00  1.30000000E+00  1.50000000E+00  8.00000000E-01  1.30000000E+00
  1.70000000E+00  1.30000000E+00  1.30000000E+00  1.50000000E+00  8.00000000E-01
  1.30000000E+00  1.70000000E+00  1.30000000E+00  1.30000000E+00  1.50000000E+00
  8.00000000E-01  1.30000000E+00  1.70000000E+00  1.30000000E+00  1.30000000E+00
  1.50000000E+00  8.00000000E-01  1.30000000E+00  1.70000000E+00  1.30000000E+00
  1.30000000E+00  1.50000000E+00  8.00000000E-01  1.30000000E+00  1.70000000E+00
  1.30000000E+00  1.30000000E+00  1.50000000E+00  8.00000000E-01  1.30000000E+00
  1.70000000E+00  1.30000000E+00  1.30000000E+00  1.50000000E+00  8.00000000E-01
  1.30000000E+00  1.70000000E+00  1.30000000E+00  1.30000000E+00  1.50000000E+00
  8.00000000E-01  1.30000000E+00  1.70000000E+00  1.30000000E+00  1.30000000E+00
  1.50000000E+00  8.00000000E-01  1.30000000E+00  1.70000000E+00  1.30000000E+00
  1.30000000E+00  1.50000000E+00  8.00000000E-01  1.30000000E+00  1.70000000E+00
  1.30000000E+00  1.30000000E+00  1.50000000E+00  8.00000000E-01  1.30000000E+00
  1.70000000E+00  1.30000000E+00  1.30000000E+00  1.50000000E+00  8.00000000E-01
  1.30000000E+00  1.70000000E+00  1.30000000E+00  1.30000000E+00  1.50000000E+00
  8.00000000E-01  1.30000000E+00  1.70000000E+00  1.30000000E+00  1.30000000E+00
  1.50000000E+00  8.00000000E-01  1.30000000E+00  1.70000000E+00  1.30000000E+00
  1.30000000E+00  1.50000000E+00  8.00000000E-01  1.30000000E+00  1.70000000E+00
  1.30000000E+00  1.30000000E+00  1.50000000E+00  8.00000000E-01  1.30000000E+00
  1.70000000E+00  1.30000000E+00  1.30000000E+00  1.50000000E+00  8.00000000E-01
  1.30000000E+00  1.70000000E+00  1.30000000E+00  1.30000000E+00  1.50000000E+00
  8.00000000E-01  1.30000000E+00  1.70000000E+00  1.30000000E+00  1.30000000E+00
  1.50000000E+00  8.00000000E-01  1.30000000E+00  1.70000000E+00  1.30000000E+00
  1.30000000E+00  1.50000000E+00  8.00000000E-01  1.30000000E+00  1.70000000E+00
  1.30000000E+00  1.30000000E+00  1.50000000E+00  8.00000000E-01  1.30000000E+00
  1.70000000E+00  1.30000000E+00  1.30000000E+00  1.50000000E+00  8.00000000E-01
  1.30000000E+00  1.70000000E+00  1.30000000E+00  1.30000000E+00  1.50000000E+00
  8.00000000E-01  1.30000000E+00  1.70000000E+00  1.30000000E+00  1.30000000E+00
  1.50000000E+00  8.00000000E-01  1.30000000E+00  1.70000000E+00  1.30000000E+00
  1.30000000E+00  1.50000000E+00  8.00000000E-01  1.30000000E+00  1.70000000E+00
  1.30000000E+00  1.30000000E+00  1.50000000E+00  8.00000000E-01  1.30000000E+00
  1.70000000E+00  1.30000000E+00  1.30000000E+00  1.50000000E+00  8.00000000E-01
  1.30000000E+00  1.70000000E+00  1.30000000E+00  1.30000000E+00  1.50000000E+00
  8.00000000E-01  1.30000000E+00  1.70000000E+00  1.30000000E+00  1.30000000E+00
  1.50000000E+00  8.00000000E-01  1.30000000E+00  1.70000000E+00  1.30000000E+00
  1.30000000E+00  1.50000000E+00  8.00000000E-01  1.30000000E+00  1.70000000E+00
  1.30000000E+00  1.30000000E+00  1.50000000E+00  8.00000000E-01  1.30000000E+00
  1.70000000E+00  1.30000000E+00  1.30000000E+00  1.50000000E+00  8.00000000E-01
  1.30000000E+00  1.70000000E+00  1.30000000E+00  1.30000000E+00  1.50000000E+00
  8.00000000E-01  1.30000000E+00  1.70000000E+00  1.30000000E+00  1.30000000E+00
  1.50000000E+00  8.00000000E-01  1.30000000E+00  1.70000000E+00  1.30000000E+00
  1.30000000E+00  1.50000000E+00  8.00000000E-01  1.30000000E+00  1.70000000E+00
  1.30000000E+00  1.30000000E+00  1.50000000E+00  8.00000000E-01  1.30000000E+00
  1.70000000E+00  1.30000000E+00  1.30000000E+00  1.50000000E+00  8.00000000E-01
  1.30000000E+00  1.70000000E+00  1.30000000E+00  1.30000000E+00  1.50000000E+00
  8.00000000E-01  1.30000000E+00  1.70000000E+00  1.30000000E+00  1.30000000E+00
  1.50000000E+00  8.00000000E-01  1.30000000E+00  1.70000000E+00  1.30000000E+00
  1.30000000E+00  1.50000000E+00  8.00000000E-01  1.30000000E+00  1.70000000E+00
  1.30000000E+00  1.30000000E+00  1.50000000E+00  8.00000000E-01  1.30000000E+00
  1.70000000E+00  1.30000000E+00  1.30000000E+00  1.50000000E+00  8.00000000E-01
  1.30000000E+00  1.70000000E+00  1.30000000E+00  1.30000000E+00  1.50000000E+00
  8.00000000E-01  1.30000000E+00  1.70000000E+00  1.30000000E+00  1.30000000E+00
  1.50000000E+00  8.00000000E-01  1.30000000E+00  1.70000000E+00  1.30000000E+00
  1.30000000E+00  1.50000000E+00  8.00000000E-01  1.30000000E+00  1.70000000E+00
  1.30000000E+00  1.30000000E+00  1.50000000E+00  8.00000000E-01  1.30000000E+00
  1.70000000E+00  1.30000000E+00  1.30000000E+00  1.50000000E+00  8.00000000E-01
  1.30000000E+00  1.70000000E+00  1.30000000E+00  1.30000000E+00  1.50000000E+00
  8.00000000E-01  1.30000000E+00  1.70000000E+00  1.30000000E+00  1.30000000E+00
  1.50000000E+00  8.00000000E-01  1.30000000E+00  1.70000000E+00  1.30000000E+00
  1.30000000E+00  1.50000000E+00  8.00000000E-01  1.30000000E+00  1.70000000E+00
  1.30000000E+00  1.30000000E+00  1.50000000E+00  8.00000000E-01  1.30000000E+00
  1.70000000E+00  1.30000000E+00  1.30000000E+00  1.50000000E+00  8.00000000E-01
  1.30000000E+00  1.70000000E+00  1.30000000E+00  1.30000000E+00  1.50000000E+00
  8.00000000E-01  1.30000000E+00  1.70000000E+00  1.30000000E+00  1.30000000E+00
  1.50000000E+00  8.00000000E-01  1.30000000E+00  1.70000000E+00  1.30000000E+00
  1.30000000E+00  1.50000000E+00  8.00000000E-01  1.30000000E+00  1.70000000E+00
  1.30000000E+00  1.30000000E+00  1.50000000E+00  8.00000000E-01  1.30000000E+00
  1.70000000E+00  1.30000000E+00  1.30000000E+00  1.50000000E+00  8.00000000E-01
  1.30000000E+00  1.70000000E+00  1.30000000E+00  1.30000000E+00  1.50000000E+00
  8.00000000E-01  1.30000000E+00  1.70000000E+00  1.30000000E+00  1.30000000E+00
  1.50000000E+00  8.00000000E-01  1.30000000E+00  1.70000000E+00  1.30000000E+00
  1.30000000E+00  1.50000000E+00  8.00000000E-01  1.30000000E+00  1.70000000E+00
  1.30000000E+00  1.30000000E+00  1.50000000E+00  8.00000000E-01  1.30000000E+00
  1.70000000E+00  1.30000000E+00  1.30000000E+00  1.50000000E+00  8.00000000E-01
  1.30000000E+00  1.70000000E+00  1.30000000E+00  1.30000000E+00  1.50000000E+00
  8.00000000E-01  1.30000000E+00  1.70000000E+00  1.30000000E+00  1.30000000E+00
  1.50000000E+00  8.00000000E-01  1.30000000E+00  1.70000000E+00  1.30000000E+00
  1.30000000E+00  1.50000000E+00  8.00000000E-01  1.30000000E+00  1.70000000E+00
  1.30000000E+00  1.30000000E+00  1.50000000E+00  8.00000000E-01  1.30000000E+00
  1.70000000E+00  1.30000000E+00  1.30000000E+00  1.50000000E+00  8.00000000E-01
  1.30000000E+00  1.70000000E+00  1.30000000E+00  1.30000000E+00  1.50000000E+00
  8.00000000E-01  1.30000000E+00  1.70000000E+00  1.30000000E+00  1.30000000E+00
  1.50000000E+00  8.00000000E-01  1.30000000E+00  1.70000000E+00  1.30000000E+00
  1.30000000E+00  1.50000000E+00  8.00000000E-01  1.30000000E+00  1.70000000E+00
  1.30000000E+00  1.30000000E+00  1.50000000E+00  8.00000000E-01  1.30000000E+00
  1.70000000E+00  1.30000000E+00  1.30000000E+00  1.50000000E+00  8.00000000E-01
  1.30000000E+00  1.70000000E+00  1.30000000E+00  1.30000000E+00  1.50000000E+00
  8.00000000E-01  1.30000000E+00  1.70000000E+00  1.30000000E+00  1.30000000E+00
  1.50000000E+00  8.00000000E-01  1.30000000E+00  1.70000000E+00  1.30000000E+00
  1.30000000E+00  1.50000000E+00  8.00000000E-01  1.30000000E+00  1.70000000E+00
  1.30000000E+00  1.30000000E+00  1.50000000E+00  8.00000000E-01  1.30000000E+00
  1.70000000E+00  1.30000000E+00  1.30000000E+00  1.50000000E+00  8.00000000E-01
  1.30000000E+00  1.70000000E+00  1.30000000E+00  1.30000000E+00  1.50000000E+00
  8.00000000E-01  1.30000000E+00  1.70000000E+00  1.30000000E+00  1.30000000E+00
  1.50000000E+00  8.00000000E-01  1.30000000E+00  1.70000000E+00  1.30000000E+00
  1.30000000E+00  1.50000000E+00  8.00000000E-01  1.30000000E+00  1.70000000E+00
  1.30000000E+00  1.30000000E+00  1.50000000E+00  8.00000000E-01  1.30000000E+00
  1.70000000E+00  1.30000000E+00  1.30000000E+00  1.50000000E+00  8.00000000E-01
  1.30000000E+00  1.70000000E+00  1.30000000E+00  1.30000000E+00  1.50000000E+00
  8.00000000E-01  1.30000000E+00  1.70000000E+00  1.30000000E+00  1.30000000E+00
  1.50000000E+00  8.00000000E-01  1.30000000E+00  1.70000000E+00  1.30000000E+00
  1.30000000E+00  1.50000000E+00  8.00000000E-01  1.30000000E+00  1.70000000E+00
  1.30000000E+00  1.30000000E+00  1.50000000E+00  8.00000000E-01  1.30000000E+00
  1.70000000E+00  1.30000000E+00  1.30000000E+00  1.50000000E+00  8.00000000E-01
  1.30000000E+00  1.70000000E+00  1.30000000E+00  1.30000000E+00  1.50000000E+00
  8.00000000E-01  1.30000000E+00  1.70000000E+00  1.30000000E+00  1.30000000E+00
  1.50000000E+00  8.00000000E-01  1.30000000E+00  1.70000000E+00  1.30000000E+00
  1.30000000E+00  1.50000000E+00  8.00000000E-01  1.30000000E+00  1.70000000E+00
  1.30000000E+00  1.30000000E+00  1.50000000E+00  8.00000000E-01  1.30000000E+00
  1.70000000E+00  1.30000000E+00  1.30000000E+00  1.50000000E+00  8.00000000E-01
  1.30000000E+00  1.70000000E+00  1.30000000E+00  1.30000000E+00  1.50000000E+00
  8.00000000E-01  1.30000000E+00  1.70000000E+00  1.30000000E+00  1.30000000E+00
  1.50000000E+00  8.00000000E-01  1.30000000E+00  1.70000000E+00  1.30000000E+00
  1.30000000E+00  1.50000000E+00  8.00000000E-01  1.30000000E+00  1.70000000E+00
  1.30000000E+00  1.30000000E+00  1.50000000E+00  8.00000000E-01  1.30000000E+00
  1.70000000E+00  1.30000000E+00  1.30000000E+00  1.50000000E+00  8.00000000E-01
  1.30000000E+00  1.70000000E+00  1.30000000E+00  1.30000000E+00  1.50000000E+00
  8.00000000E-01  1.30000000E+00  1.70000000E+00  1.30000000E+00  1.30000000E+00
  1.50000000E+00  8.00000000E-01  1.30000000E+00  1.70000000E+00  1.30000000E+00
  1.30000000E+00  1.50000000E+00  8.00000000E-01  1.30000000E+00  1.70000000E+00
  1.30000000E+00  1.30000000E+00  1.50000000E+00  8.00000000E-01  1.30000000E+00
  1.70000000E+00  1.30000000E+00  1.30000000E+00  1.50000000E+00  8.00000000E-01
  1.30000000E+00  1.70000000E+00  1.30000000E+00  1.30000000E+00  1.50000000E+00
  8.00000000E-01  1.30000000E+00  1.70000000E+00  1.30000000E+00  1.30000000E+00
  1.50000000E+00  8.00000000E-01  1.30000000E+00  1.70000000E+00  1.30000000E+00
  1.30000000E+00  1.50000000E+00  8.00000000E-01  1.30000000E+00  1.70000000E+00
  1.30000000E+00  1.30000000E+00  1.50000000E+00  8.00000000E-01  1.30000000E+00
  1.70000000E+00  1.30000000E+00  1.30000000E+00  1.50000000E+00  8.00000000E-01
  1.30000000E+00  1.70000000E+00  1.30000000E+00  1.30000000E+00  1.50000000E+00
  8.00000000E-01  1.30000000E+00  1.70000000E+00  1.30000000E+00  1.30000000E+00
  1.50000000E+00  8.00000000E-01  1.30000000E+00  1.70000000E+00  1.30000000E+00
  1.30000000E+00  1.50000000E+00  8.00000000E-01  1.30000000E+00  1.70000000E+00
  1.30000000E+00  1.30000000E+00  1.50000000E+00  8.00000000E-01  1.30000000E+00
  1.70000000E+00  1.30000000E+00  1.30000000E+00  1.50000000E+00  8.00000000E-01
  1.30000000E+00  1.70000000E+00  1.30000000E+00  1.30000000E+00  1.50000000E+00
  8.00000000E-01  1.30000000E+00  1.70000000E+00  1.30000000E+00  1.30000000E+00
  1.50000000E+00  8.00000000E-01  1.30000000E+00  1.70000000E+00  1.30000000E+00
  1.30000000E+00  1.50000000E+00  8.00000000E-01  1.30000000E+00  1.70000000E+00
  1.30000000E+00  1.30000000E+00  1.50000000E+00  8.00000000E-01  1.30000000E+00
  1.70000000E+00  1.30000000E+00  1.30000000E+00  1.50000000E+00  8.00000000E-01
  1.30000000E+00  1.70000000E+00  1.30000000E+00  1.30000000E+00  1.50000000E+00
  8.00000000E-01  1.30000000E+00  1.70000000E+00  1.30000000E+00  1.30000000E+00
  1.50000000E+00  8.00000000E-01  1.30000000E+00  1.70000000E+00  1.30000000E+00
  1.30000000E+00  1.50000000E+00  8.00000000E-01  1.30000000E+00  1.70000000E+00
  1.30000000E+00  1.30000000E+00  1.50000000E+00  8.00000000E-01  1.30000000E+00
  1.70000000E+00  1.30000000E+00  1.30000000E+00  1.50000000E+00  8.00000000E-01
  1.30000000E+00  1.70000000E+00  1.30000000E+00  1.30000000E+00  1.50000000E+00
  8.00000000E-01  1.30000000E+00  1.70000000E+00  1.30000000E+00  1.30000000E+00
  1.50000000E+00  8.00000000E-01  1.30000000E+00  1.70000000E+00  1.30000000E+00
  1.30000000E+00  1.50000000E+00  8.00000000E-01  1.30000000E+00  1.70000000E+00
  1.30000000E+00  1.30000000E+00  1.50000000E+00  8.00000000E-01  1.30000000E+00
  1.70000000E+00  1.30000000E+00  1.30000000E+00  1.50000000E+00  8.00000000E-01
  1.30000000E+00  1.70000000E+00  1.30000000E+00  1.30000000E+00  1.50000000E+00
  8.00000000E-01  1.30000000E+00  1.70000000E+00  1.30000000E+00  1.30000000E+00
  1.50000000E+00  8.00000000E-01  1.30000000E+00  1.70000000E+00  1.30000000E+00
  1.30000000E+00  1.50000000E+00  8.00000000E-01  1.30000000E+00  1.70000000E+00
  1.30000000E+00  1.30000000E+00  1.50000000E+00  8.00000000E-01  1.30000000E+00
  1.70000000E+00  1.30000000E+00  1.30000000E+00  1.50000000E+00  8.00000000E-01
  1.30000000E+00  1.70000000E+00  1.30000000E+00  1.30000000E+00  1.50000000E+00
  8.00000000E-01  1.30000000E+00  1.70000000E+00  1.30000000E+00  1.30000000E+00
  1.50000000E+00  8.00000000E-01  1.30000000E+00  1.70000000E+00  1.30000000E+00
  1.30000000E+00  1.50000000E+00  8.00000000E-01  1.30000000E+00  1.70000000E+00
  1.30000000E+00  1.30000000E+00  1.50000000E+00  8.00000000E-01  1.30000000E+00
  1.70000000E+00  1.30000000E+00  1.30000000E+00  1.50000000E+00  8.00000000E-01
  1.30000000E+00  1.70000000E+00  1.30000000E+00  1.30000000E+00  1.50000000E+00
  8.00000000E-01  1.30000000E+00  1.70000000E+00  1.30000000E+00  1.30000000E+00
  1.50000000E+00  8.00000000E-01  1.30000000E+00  1.70000000E+00  1.30000000E+00
  1.30000000E+00  1.50000000E+00  8.00000000E-01  1.30000000E+00  1.70000000E+00
  1.30000000E+00  1.30000000E+00  1.50000000E+00  8.00000000E-01  1.30000000E+00
  1.70000000E+00  1.30000000E+00  1.30000000E+00  1.50000000E+00  8.00000000E-01
  1.30000000E+00  1.70000000E+00  1.30000000E+00  1.30000000E+00  1.50000000E+00
  8.00000000E-01  1.30000000E+00  1.70000000E+00  1.30000000E+00  1.30000000E+00
  1.50000000E+00  8.00000000E-01  1.30000000E+00  1.70000000E+00  1.30000000E+00
  1.30000000E+00  1.50000000E+00  8.00000000E-01  1.30000000E+00  1.70000000E+00
  1.30000000E+00  1.30000000E+00  1.50000000E+00  8.00000000E-01  1.30000000E+00
  1.70000000E+00  1.30000000E+00  1.30000000E+00  1.50000000E+00  8.00000000E-01
  1.30000000E+00  1.70000000E+00  1.30000000E+00  1.30000000E+00  1.50000000E+00
  8.00000000E-01  1.30000000E+00  1.70000000E+00  1.30000000E+00  1.30000000E+00
  1.50000000E+00  8.00000000E-01  1.30000000E+00  1.70000000E+00  1.30000000E+00
  1.30000000E+00  1.50000000E+00  8.00000000E-01  1.30000000E+00  1.70000000E+00
  1.30000000E+00  1.30000000E+00  1.50000000E+00  8.00000000E-01  1.30000000E+00
  1.70000000E+00  1.30000000E+00  1.30000000E+00  1.50000000E+00  8.00000000E-01
  1.30000000E+00  1.70000000E+00  1.30000000E+00  1.30000000E+00  1.50000000E+00
  8.00000000E-01  1.30000000E+00  1.70000000E+00  1.30000000E+00  1.30000000E+00
  1.50000000E+00  8.00000000E-01  1.30000000E+00  1.70000000E+00  1.30000000E+00
  1.30000000E+00  1.50000000E+00  8.00000000E-01  1.30000000E+00  1.70000000E+00
  1.30000000E+00  1.30000000E+00  1.50000000E+00  8.00000000E-01  1.30000000E+00
  1.70000000E+00  1.30000000E+00  1.30000000E+00  1.50000000E+00  8.00000000E-01
  1.30000000E+00  1.70000000E+00  1.30000000E+00  1.30000000E+00  1.50000000E+00
  8.00000000E-01  1.30000000E+00  1.70000000E+00  1.30000000E+00  1.30000000E+00
  1.50000000E+00  8.00000000E-01  1.30000000E+00  1.70000000E+00  1.30000000E+00
  1.30000000E+00  1.50000000E+00  8.00000000E-01  1.30000000E+00  1.70000000E+00
  1.30000000E+00  1.30000000E+00  1.50000000E+00  8.00000000E-01  1.30000000E+00
  1.70000000E+00  1.30000000E+00  1.30000000E+00  1.50000000E+00  8.00000000E-01
  1.30000000E+00  1.70000000E+00  1.30000000E+00  1.30000000E+00  1.50000000E+00
  8.00000000E-01  1.30000000E+00  1.70000000E+00  1.30000000E+00  1.30000000E+00
  1.50000000E+00  8.00000000E-01  1.30000000E+00  1.70000000E+00  1.30000000E+00
  1.30000000E+00  1.50000000E+00  8.00000000E-01  1.30000000E+00  1.70000000E+00
  1.30000000E+00  1.30000000E+00  1.50000000E+00  8.00000000E-01  1.30000000E+00
  1.70000000E+00  1.30000000E+00  1.30000000E+00  1.50000000E+00  8.00000000E-01
  1.30000000E+00  1.70000000E+00  1.30000000E+00  1.30000000E+00  1.50000000E+00
  8.00000000E-01  1.30000000E+00  1.70000000E+00  1.30000000E+00  1.30000000E+00
  1.50000000E+00  8.00000000E-01  1.30000000E+00  1.70000000E+00  1.30000000E+00
  1.30000000E+00  1.50000000E+00  8.00000000E-01  1.30000000E+00  1.70000000E+00
  1.30000000E+00  1.30000000E+00  1.50000000E+00  8.00000000E-01  1.30000000E+00
  1.70000000E+00  1.30000000E+00  1.30000000E+00  1.50000000E+00  8.00000000E-01
  1.30000000E+00  1.70000000E+00  1.30000000E+00  1.30000000E+00  1.50000000E+00
  8.00000000E-01  1.30000000E+00  1.70000000E+00  1.30000000E+00  1.30000000E+00
  1.50000000E+00  8.00000000E-01  1.30000000E+00  1.70000000E+00  1.30000000E+00
  1.30000000E+00  1.50000000E+00  8.00000000E-01  1.30000000E+00  1.70000000E+00
  1.30000000E+00  1.30000000E+00  1.50000000E+00  8.00000000E-01  1.30000000E+00
  1.70000000E+00  1.30000000E+00  1.30000000E+00  1.50000000E+00  8.00000000E-01
  1.30000000E+00  1.70000000E+00  1.30000000E+00  1.30000000E+00  1.50000000E+00
  8.00000000E-01  1.30000000E+00  1.70000000E+00  1.30000000E+00  1.30000000E+00
  1.50000000E+00  8.00000000E-01  1.30000000E+00  1.70000000E+00  1.30000000E+00
  1.30000000E+00  1.50000000E+00  8.00000000E-01  1.30000000E+00  1.70000000E+00
  1.30000000E+00  1.30000000E+00  1.50000000E+00  8.00000000E-01  1.30000000E+00
  1.70000000E+00  1.30000000E+00  1.30000000E+00  1.50000000E+00  8.00000000E-01
  1.30000000E+00  1.70000000E+00  1.30000000E+00  1.30000000E+00  1.50000000E+00
  8.00000000E-01  1.30000000E+00  1.70000000E+00  1.30000000E+00  1.30000000E+00
  1.50000000E+00  8.00000000E-01  1.30000000E+00  1.70000000E+00  1.30000000E+00
  1.30000000E+00  1.50000000E+00  8.00000000E-01  1.30000000E+00  1.70000000E+00
  1.30000000E+00  1.30000000E+00  1.50000000E+00  8.00000000E-01  1.30000000E+00
  1.70000000E+00  1.30000000E+00  1.30000000E+00  1.50000000E+00  8.00000000E-01
  1.30000000E+00  1.70000000E+00  1.30000000E+00  1.30000000E+00  1.50000000E+00
  8.00000000E-01  1.30000000E+00  1.70000000E+00  1.30000000E+00  1.30000000E+00
  1.50000000E+00  8.00000000E-01  1.30000000E+00  1.70000000E+00  1.30000000E+00
  1.30000000E+00  1.50000000E+00  8.00000000E-01  1.30000000E+00  1.70000000E+00
  1.30000000E+00  1.30000000E+00  1.50000000E+00  8.00000000E-01  1.30000000E+00
  1.70000000E+00  1.30000000E+00  1.30000000E+00  1.50000000E+00  8.00000000E-01
  1.30000000E+00  1.70000000E+00  1.30000000E+00  1.30000000E+00  1.50000000E+00
  8.00000000E-01  1.30000000E+00  1.70000000E+00  1.30000000E+00  1.30000000E+00
  1.50000000E+00  8.00000000E-01  1.30000000E+00  1.70000000E+00  1.30000000E+00
  1.30000000E+00  1.50000000E+00  8.00000000E-01  1.30000000E+00  1.70000000E+00
  1.30000000E+00  1.30000000E+00  1.50000000E+00  8.00000000E-01  1.30000000E+00
  1.70000000E+00  1.30000000E+00  1.30000000E+00  1.50000000E+00  8.00000000E-01
  1.30000000E+00  1.70000000E+00  1.30000000E+00  1.30000000E+00  1.50000000E+00
  8.00000000E-01  1.30000000E+00  1.70000000E+00  1.30000000E+00  1.30000000E+00
  1.50000000E+00  8.00000000E-01  1.30000000E+00  1.70000000E+00  1.30000000E+00
  1.30000000E+00  1.50000000E+00  8.00000000E-01  1.30000000E+00  1.70000000E+00
  1.30000000E+00  1.30000000E+00  1.50000000E+00  8.00000000E-01  1.30000000E+00
  1.70000000E+00  1.30000000E+00  1.30000000E+00  1.50000000E+00  8.00000000E-01
  1.30000000E+00  1.70000000E+00  1.30000000E+00  1.30000000E+00  1.50000000E+00
  8.00000000E-01  1.30000000E+00  1.70000000E+00  1.30000000E+00  1.30000000E+00
  1.50000000E+00  8.00000000E-01  1.30000000E+00  1.70000000E+00  1.30000000E+00
  1.30000000E+00  1.50000000E+00  8.00000000E-01  1.30000000E+00  1.70000000E+00
  1.30000000E+00  1.30000000E+00  1.50000000E+00  8.00000000E-01  1.30000000E+00
  1.70000000E+00  1.30000000E+00  1.30000000E+00  1.50000000E+00  8.00000000E-01
  1.30000000E+00  1.70000000E+00  1.30000000E+00  1.30000000E+00  1.50000000E+00
  8.00000000E-01  1.30000000E+00  1.70000000E+00  1.30000000E+00  1.30000000E+00
  1.50000000E+00  8.00000000E-01  1.30000000E+00  1.70000000E+00  1.30000000E+00
  1.30000000E+00  1.50000000E+00  8.00000000E-01  1.30000000E+00  1.70000000E+00
  1.30000000E+00  1.30000000E+00  1.50000000E+00  8.00000000E-01  1.30000000E+00
  1.70000000E+00  1.30000000E+00  1.30000000E+00  1.50000000E+00  8.00000000E-01
  1.30000000E+00  1.70000000E+00  1.30000000E+00  1.30000000E+00  1.50000000E+00
  8.00000000E-01  1.30000000E+00  1.70000000E+00  1.30000000E+00  1.30000000E+00
  1.50000000E+00  8.00000000E-01  1.30000000E+00  1.70000000E+00  1.30000000E+00
  1.30000000E+00  1.50000000E+00  8.00000000E-01  1.30000000E+00  1.70000000E+00
  1.30000000E+00  1.30000000E+00  1.50000000E+00  8.00000000E-01  1.30000000E+00
  1.70000000E+00  1.30000000E+00  1.30000000E+00  1.50000000E+00  8.00000000E-01
  1.30000000E+00  1.70000000E+00  1.30000000E+00  1.30000000E+00  1.50000000E+00
  8.00000000E-01  1.30000000E+00  1.70000000E+00  1.30000000E+00  1.30000000E+00
  1.50000000E+00  8.00000000E-01  1.30000000E+00  1.70000000E+00  1.30000000E+00
  1.30000000E+00  1.50000000E+00  8.00000000E-01  1.30000000E+00  1.70000000E+00
  1.30000000E+00  1.30000000E+00  1.50000000E+00  8.00000000E-01  1.30000000E+00
  1.70000000E+00  1.30000000E+00  1.30000000E+00  1.50000000E+00  8.00000000E-01
  1.30000000E+00  1.70000000E+00  1.30000000E+00  1.30000000E+00  1.50000000E+00
  8.00000000E-01  1.30000000E+00  1.70000000E+00  1.30000000E+00  1.30000000E+00
  1.50000000E+00  8.00000000E-01  1.30000000E+00  1.70000000E+00  1.30000000E+00
  1.30000000E+00  1.50000000E+00  8.00000000E-01  1.30000000E+00  1.70000000E+00
  1.30000000E+00  1.30000000E+00  1.50000000E+00  8.00000000E-01  1.30000000E+00
  1.70000000E+00  1.30000000E+00  1.30000000E+00  1.50000000E+00  8.00000000E-01
  1.30000000E+00  1.70000000E+00  1.30000000E+00  1.30000000E+00  1.50000000E+00
  8.00000000E-01  1.30000000E+00  1.70000000E+00  1.30000000E+00  1.30000000E+00
  1.50000000E+00  8.00000000E-01  1.30000000E+00  1.70000000E+00  1.30000000E+00
  1.30000000E+00  1.50000000E+00  8.00000000E-01  1.30000000E+00  1.70000000E+00
  1.30000000E+00  1.30000000E+00  1.50000000E+00  8.00000000E-01  1.30000000E+00
  1.70000000E+00  1.30000000E+00  1.30000000E+00  1.50000000E+00  8.00000000E-01
  1.30000000E+00  1.70000000E+00  1.30000000E+00  1.30000000E+00  1.50000000E+00
  8.00000000E-01  1.30000000E+00  1.70000000E+00  1.30000000E+00  1.30000000E+00
  1.50000000E+00  8.00000000E-01  1.30000000E+00  1.70000000E+00  1.30000000E+00
  1.30000000E+00  1.50000000E+00  8.00000000E-01  1.30000000E+00  1.70000000E+00
  1.30000000E+00  1.30000000E+00  1.50000000E+00  8.00000000E-01  1.30000000E+00
  1.70000000E+00  1.30000000E+00  1.30000000E+00  1.50000000E+00  8.00000000E-01
  1.30000000E+00  1.70000000E+00  1.30000000E+00  1.30000000E+00  1.50000000E+00
  8.00000000E-01  1.30000000E+00  1.70000000E+00  1.30000000E+00  1.30000000E+00
  1.50000000E+00  8.00000000E-01  1.30000000E+00  1.70000000E+00  1.30000000E+00
  1.30000000E+00  1.50000000E+00  8.00000000E-01  1.30000000E+00  1.70000000E+00
  1.30000000E+00  1.30000000E+00  1.50000000E+00  8.00000000E-01  1.30000000E+00
  1.70000000E+00  1.30000000E+00  1.30000000E+00  1.50000000E+00  8.00000000E-01
  1.30000000E+00  1.70000000E+00  1.30000000E+00  1.30000000E+00  1.50000000E+00
  8.00000000E-01  1.30000000E+00  1.70000000E+00  1.30000000E+00  1.30000000E+00
  1.50000000E+00  8.00000000E-01  1.30000000E+00  1.70000000E+00  1.30000000E+00
  1.30000000E+00  1.50000000E+00  8.00000000E-01  1.30000000E+00  1.70000000E+00
  1.30000000E+00  1.30000000E+00  1.50000000E+00  8.00000000E-01  1.30000000E+00
  1.70000000E+00  1.30000000E+00  1.30000000E+00  1.50000000E+00  8.00000000E-01
  1.30000000E+00  1.70000000E+00  1.30000000E+00  1.30000000E+00  1.50000000E+00
  8.00000000E-01  1.30000000E+00  1.70000000E+00  1.30000000E+00  1.30000000E+00
  1.50000000E+00  8.00000000E-01  1.30000000E+00  1.70000000E+00  1.30000000E+00
  1.30000000E+00  1.50000000E+00  8.00000000E-01  1.30000000E+00  1.70000000E+00
  1.30000000E+00  1.30000000E+00  1.50000000E+00  8.00000000E-01  1.30000000E+00
  1.70000000E+00  1.30000000E+00  1.30000000E+00  1.50000000E+00  8.00000000E-01
  1.30000000E+00  1.70000000E+00  1.30000000E+00  1.30000000E+00  1.50000000E+00
  8.00000000E-01  1.30000000E+00  1.70000000E+00  1.30000000E+00  1.30000000E+00
  1.50000000E+00  8.00000000E-01  1.30000000E+00  1.70000000E+00  1.30000000E+00
  1.30000000E+00  1.50000000E+00  8.00000000E-01  1.30000000E+00  1.70000000E+00
  1.30000000E+00  1.30000000E+00  1.50000000E+00  8.00000000E-01  1.30000000E+00
  1.70000000E+00  1.30000000E+00  1.30000000E+00  1.50000000E+00  8.00000000E-01
  1.30000000E+00  1.70000000E+00  1.30000000E+00  1.30000000E+00  1.50000000E+00
  8.00000000E-01  1.30000000E+00  1.70000000E+00  1.30000000E+00  1.30000000E+00
  1.50000000E+00  8.00000000E-01  1.30000000E+00  1.70000000E+00  1.30000000E+00
  1.30000000E+00  1.50000000E+00  8.00000000E-01  1.30000000E+00  1.70000000E+00
  1.30000000E+00  1.30000000E+00  1.50000000E+00  8.00000000E-01  1.30000000E+00
  1.70000000E+00  1.30000000E+00  1.30000000E+00  1.50000000E+00  8.00000000E-01
  1.30000000E+00  1.70000000E+00  1.30000000E+00  1.30000000E+00  1.50000000E+00
  8.00000000E-01  1.30000000E+00  1.70000000E+00  1.30000000E+00  1.30000000E+00
  1.50000000E+00  8.00000000E-01  1.30000000E+00  1.70000000E+00  1.30000000E+00
  1.30000000E+00  1.50000000E+00  8.00000000E-01  1.30000000E+00  1.70000000E+00
  1.30000000E+00  1.30000000E+00  1.50000000E+00  8.00000000E-01  1.30000000E+00
  1.70000000E+00  1.30000000E+00  1.30000000E+00  1.50000000E+00  8.00000000E-01
  1.30000000E+00  1.70000000E+00  1.30000000E+00  1.30000000E+00  1.50000000E+00
  8.00000000E-01  1.30000000E+00  1.70000000E+00  1.30000000E+00  1.30000000E+00
  1.50000000E+00  8.00000000E-01  1.30000000E+00  1.70000000E+00  1.30000000E+00
  1.30000000E+00  1.50000000E+00  8.00000000E-01  1.30000000E+00  1.70000000E+00
  1.30000000E+00  1.30000000E+00  1.50000000E+00  8.00000000E-01  1.30000000E+00
  1.70000000E+00  1.30000000E+00  1.30000000E+00  1.50000000E+00  8.00000000E-01
  1.30000000E+00  1.70000000E+00  1.30000000E+00  1.30000000E+00  1.50000000E+00
  8.00000000E-01  1.30000000E+00  1.70000000E+00  1.30000000E+00  1.30000000E+00
  1.50000000E+00  8.00000000E-01  1.30000000E+00  1.70000000E+00  1.30000000E+00
  1.30000000E+00  1.50000000E+00  8.00000000E-01  1.30000000E+00  1.70000000E+00
  1.30000000E+00  1.30000000E+00  1.50000000E+00  8.00000000E-01  1.30000000E+00
  1.70000000E+00  1.30000000E+00  1.30000000E+00  1.50000000E+00  8.00000000E-01
  1.30000000E+00  1.70000000E+00  1.30000000E+00  1.30000000E+00  1.50000000E+00
  8.00000000E-01  1.30000000E+00  1.70000000E+00  1.30000000E+00  1.30000000E+00
  1.50000000E+00  8.00000000E-01  1.30000000E+00  1.70000000E+00  1.30000000E+00
  1.30000000E+00  1.50000000E+00  8.00000000E-01  1.30000000E+00  1.70000000E+00
  1.30000000E+00  1.30000000E+00  1.50000000E+00  8.00000000E-01  1.30000000E+00
  1.70000000E+00  1.30000000E+00  1.30000000E+00  1.50000000E+00  8.00000000E-01
  1.30000000E+00  1.70000000E+00  1.30000000E+00  1.30000000E+00  1.50000000E+00
  8.00000000E-01  1.30000000E+00  1.70000000E+00  1.30000000E+00  1.30000000E+00
  1.50000000E+00  8.00000000E-01  1.30000000E+00  1.70000000E+00  1.30000000E+00
  1.30000000E+00  1.50000000E+00  8.00000000E-01  1.30000000E+00  1.70000000E+00
  1.30000000E+00  1.30000000E+00  1.50000000E+00  8.00000000E-01  1.30000000E+00
  1.70000000E+00  1.30000000E+00  1.30000000E+00  1.50000000E+00  8.00000000E-01
  1.30000000E+00  1.70000000E+00  1.30000000E+00  1.30000000E+00  1.50000000E+00
  8.00000000E-01  1.30000000E+00  1.70000000E+00  1.30000000E+00  1.30000000E+00
  1.50000000E+00  8.00000000E-01  1.30000000E+00  1.70000000E+00  1.30000000E+00
  1.30000000E+00  1.50000000E+00  8.00000000E-01  1.30000000E+00  1.70000000E+00
  1.30000000E+00  1.30000000E+00  1.50000000E+00  8.00000000E-01  1.30000000E+00
  1.70000000E+00  1.30000000E+00  1.30000000E+00  1.50000000E+00  8.00000000E-01
  1.30000000E+00  1.70000000E+00  1.30000000E+00  1.30000000E+00  1.50000000E+00
  8.00000000E-01  1.30000000E+00  1.70000000E+00  1.30000000E+00  1.30000000E+00
  1.50000000E+00  8.00000000E-01  1.30000000E+00  1.70000000E+00  1.30000000E+00
  1.30000000E+00  1.50000000E+00  8.00000000E-01  1.30000000E+00  1.70000000E+00
  1.30000000E+00  1.30000000E+00  1.50000000E+00  8.00000000E-01  1.30000000E+00
  1.70000000E+00  1.30000000E+00  1.30000000E+00  1.50000000E+00  8.00000000E-01
  1.30000000E+00  1.70000000E+00  1.30000000E+00  1.30000000E+00  1.50000000E+00
  8.00000000E-01  1.30000000E+00  1.70000000E+00  1.30000000E+00  1.30000000E+00
  1.50000000E+00  8.00000000E-01  1.30000000E+00  1.70000000E+00  1.30000000E+00
  1.30000000E+00  1.50000000E+00  8.00000000E-01  1.30000000E+00  1.70000000E+00
  1.30000000E+00  1.30000000E+00  1.50000000E+00  8.00000000E-01  1.30000000E+00
  1.70000000E+00  1.30000000E+00  1.30000000E+00  1.50000000E+00  8.00000000E-01
  1.30000000E+00  1.70000000E+00  1.30000000E+00  1.30000000E+00  1.50000000E+00
  8.00000000E-01  1.30000000E+00  1.70000000E+00  1.30000000E+00  1.30000000E+00
  1.50000000E+00  8.00000000E-01
%FLAG SCREEN                                                                    
%FORMAT(5E16.8)                                                                 
  7.90000000E-01  8.50000000E-01  7.20000000E-01  8.50000000E-01  7.20000000E-01
  8.50000000E-01  7.20000000E-01  8.50000000E-01  8.50000000E-01  7.20000000E-01
  8.50000000E-01  8.50000000E-01  8.50000000E-01  7.20000000E-01  8.50000000E-01
  7.90000000E-01  7.20000000E-01  8.50000000E-01  8.50000000E-01  8.50000000E-01
  7.20000000E-01  8.50000000E-01  8.50000000E-01  7.20000000E-01  8.50000000E-01
  7.90000000E-01  7.20000000E-01  8.50000000E-01  8.50000000E-01  8.50000000E-01
  7.20000000E-01  8.50000000E-01  7.20000000E-01  8.50000000E-01  8.50000000E-01
  7.20000000E-01  8.50000000E-01  7.20000000E-01  8.50000000E-01  8.50000000E-01
  8.50000000E-01  7.20000000E-01  8.50000000E-01  8.50000000E-01  8.50000000E-01
  7.90000000E-01  8.50000000E-01  7.20000000E-01  8.50000000E-01  7.20000000E-01
  8.50000000E-01  7.20000000E-01  8.50000000E-01  7.20000000E-01  8.50000000E-01
  8.50000000E-01  8.50000000E-01  7.20000000E-01  8.50000000E-01  8.50000000E-01
  8.50000000E-01  7.20000000E-01  8.50000000E-01  7.90000000E-01  7.20000000E-01
  8.50000000E-01  8.50000000E-01  8.50000000E-01  7.20000000E-01  8.50000000E-01
  7.20000000E-01  8.50000000E-01  8.50000000E-01  7.20000000E-01  8.50000000E-01
  7.20000000E-01  8.50000000E-01  8.50000000E-01  8.50000000E-01  7.20000000E-01
  8.50000000E-01  8.50000000E-01  8.50000000E-01  7.90000000E-01  8.50000000E-01
  7.20000000E-01  8.50000000E-01  7.20000000E-01  8.50000000E-01  8.50000000E-01
  8.50000000E-01  7.20000000E-01  8.50000000E-01  7.20000000E-01  8.50000000E-01
  7.90000000E-01  8.50000000E-01  7.20000000E-01  8.50000000E-01  7.20000000E-01
  8.50000000E-01  8.50000000E-01  8.50000000E-01  7.20000000E-01  8.50000000E-01
  7.90000000E-01  7.20000000E-01  8.50000000E-01  8.50000000E-01  8.50000000E-01
  7.20000000E-01  8.50000000E-01  7.20000000E-01  8.50000000E-01  8.50000000E-01
  7.20000000E-01  8.50000000E-01  7.20000000E-01  8.50000000E-01  8.50000000E-01
  8.50000000E-01  7.20000000E-01  8.50000000E-01  8.50000000E-01  8.50000000E-01
  7.20000000E-01  8.50000000E-01  7.90000000E-01  7.20000000E-01  8.50000000E-01
  8.50000000E-01  8.50000000E-01  7.20000000E-01  8.50000000E-01  7.20000000E-01
  8.50000000E-01  8.50000000E-01  7.20000000E-01  8.50000000E-01  7.20000000E-01
  8.50000000E-01  8.50000000E-01  8.50000000E-01  7.20000000E-01  8.50000000E-01
  8.50000000E-01  8.50000000E-01  7.20000000E-01  8.50000000E-01  7.90000000E-01
  7.20000000E-01  8.50000000E-01  8.50000000E-01  8.50000000E-01  7.20000000E-01
  8.50000000E-01  7.20000000E-01  8.50000000E-01  8.50000000E-01  8.50000000E-01
  7.20000000E-01  8.50000000E-01  7.20000000E-01  8.50000000E-01  7.20000000E-01
  8.50000000E-01  8.50000000E-01  8.50000000E-01  7.20000000E-01  8.50000000E-01
  8.50000000E-01  7.20000000E-01  8.50000000E-01  7.20000000E-01  8.50000000E-01
  8.50000000E-01  8.50000000E-01  7.20000000E-01  8.50000000E-01  7.90000000E-01
  7.20000000E-01  8.50000000E-01  8.50000000E-01  8.50000000E-01  7.20000000E-01
  8.50000000E-01  7.20000000E-01  8.50000000E-01  7.20000000E-01  8.50000000E-01
  8.50000000E-01  8.50000000E-01  7.20000000E-01  8.50000000E-01  8.50000000E-01
  8.50000000E-01  8.50000000E-01  7.20000000E-01  8.50000000E-01  8.50000000E-01
  8.50000000E-01  8.50000000E-01  8.50000000E-01  7.20000000E-01  8.50000000E-01
  8.50000000E-01  8.50000000E-01  8.50000000E-01  8.50000000E-01  7.20000000E-01
  8.50000000E-01  8.50000000E-01  8.50000000E-01  8.50000000E-01  8.50000000E-01
  7.20000000E-01  8.50000000E-01  8.50000000E-01  8.50000000E-01  8.50000000E-01
  8.50000000E-01  7.20000000E-01  8.50000000E-01  8.50000000E-01  8.50000000E-01
  8.50000000E-01  8.50000000E-01  7.20000000E-01  8.50000000E-01  8.50000000E-01
  8.50000000E-01  8.50000000E-01  8.50000000E-01  7.20000000E-01  8.50000000E-01
  8.50000000E-01  8.50000000E-01  8.50000000E-01  8.50000000E-01  7.20000000E-01
  8.50000000E-01  8.50000000E-01  8.50000000E-01  8.50000000E-01  8.50000000E-01
  7.20000000E-01  8.50000000E-01  8.50000000E-01  8.50000000E-01  8.50000000E-01
  8.50000000E-01  7.20000000E-01  8.50000000E-01  8.50000000E-01  8.50000000E-01
  8.50000000E-01  8.50000000E-01  7.20000000E-01  8.50000000E-01  8.50000000E-01
  8.50000000E-01  8.50000000E-01  8.50000000E-01  7.20000000E-01  8.50000000E-01
  8.50000000E-01  8.50000000E-01  8.50000000E-01  8.50000000E-01  7.20000000E-01
  8.50000000E-01  8.50000000E-01  8.50000000E-01  8.50000000E-01  8.50000000E-01
  7.20000000E-01  8.50000000E-01  8.50000000E-01  8.50000000E-01  8.50000000E-01
  8.50000000E-01  7.20000000E-01  8.50000000E-01  8.50000000E-01  8.50000000E-01
  8.50000000E-01  8.50000000E-01  7.20000000E-01  8.50000000E-01  8.50000000E-01
  8.50000000E-01  8.50000000E-01  8.50000000E-01  7.20000000E-01  8.50000000E-01
  8.50000000E-01  8.50000000E-01  8.50000000E-01  8.50000000E-01  7.20000000E-01
  8.50000000E-01  8.50000000E-01  8.50000000E-01  8.50000000E-01  8.50000000E-01
  7.20000000E-01  8.50000000E-01  8.50000000E-01  8.50000000E-01  8.50000000E-01
  8.50000000E-01  7.20000000E-01  8.50000000E-01  8.50000000E-01  8.50000000E-01
  8.50000000E-01  8.50000000E-01  7.20000000E-01  8.50000000E-01  8.50000000E-01
  8.50000000E-01  8.50000000E-01  8.50000000E-01  7.20000000E-01  8.50000000E-01
  8.50000000E-01  8.50000000E-01  8.50000000E-01  8.50000000E-01  7.20000000E-01
  8.50000000E-01  8.50000000E-01  8.50000000E-01  8.50000000E-01  8.50000000E-01
  7.20000000E-01  8.50000000E-01  8.50000000E-01  8.50000000E-01  8.50000000E-01
  8.50000000E-01  7.20000000E-01  8.50000000E-01  8.50000000E-01  8.50000000E-01
  8.50000000E-01  8.50000000E-01  7.20000000E-01  8.50000000E-01  8.50000000E-01
  8.50000000E-01  8.50000000E-01  8.50000000E-01  7.20000000E-01  8.50000000E-01
  8.50000000E-01  8.50000000E-01  8.50000000E-01  8.50000000E-01  7.20000000E-01
  8.50000000E-01  8.50000000E-01  8.50000000E-01  8.50000000E-01  8.50000000E-01
  7.20000000E-01  8.50000000E-01  8.50000000E-01  8.50000000E-01  8.50000000E-01
  8.50000000E-01  7.20000000E-01  8.50000000E-01  8.50000000E-01  8.50000000E-01
  8.50000000E-01  8.50000000E-01  7.20000000E-01  8.50000000E-01  8.50000000E-01
  8.50000000E-01  8.50000000E-01  8.50000000E-01  7.20000000E-01  8.50000000E-01
  8.50000000E-01  8.50000000E-01  8.50000000E-01  8.50000000E-01  7.20000000E-01
  8.50000000E-01  8.50000000E-01  8.50000000E-01  8.50000000E-01  8.50000000E-01
  7.20000000E-01  8.50000000E-01  8.50000000E-01  8.50000000E-01  8.50000000E-01
  8.50000000E-01  7.20000000E-01  8.50000000E-01  8.50000000E-01  8.50000000E-01
  8.50000000E-01  8.50000000E-01  7.20000000E-01  8.50000000E-01  8.50000000E-01
  8.50000000E-01  8.50000000E-01  8.50000000E-01  7.20000000E-01  8.50000000E-01
  8.50000000E-01  8.50000000E-01  8.50000000E-01  8.50000000E-01  7.20000000E-01
  8.50000000E-01  8.50000000E-01  8.50000000E-01  8.50000000E-01  8.50000000E-01
  7.20000000E-01  8.50000000E-01  8.50000000E-01  8.50000000E-01  8.50000000E-01
  8.50000000E-01  7.20000000E-01  8.50000000E-01  8.50000000E-01  8.50000000E-01
  8.50000000E-01  8.50000000E-01  7.20000000E-01  8.50000000E-01  8.50000000E-01
  8.50000000E-01  8.50000000E-01  8.50000000E-01  7.20000000E-01  8.50000000E-01
  8.50000000E-01  8.50000000E-01  8.50000000E-01  8.50000000E-01  7.20000000E-01
  8.50000000E-01  8.50000000E-01  8.50000000E-01  8.50000000E-01  8.50000000E-01
  7.20000000E-01  8.50000000E-01  8.50000000E-01  8.50000000E-01  8.50000000E-01
  8.50000000E-01  7.20000000E-01  8.50000000E-01  8.50000000E-01  8.50000000E-01
  8.50000000E-01  8.50000000E-01  7.20000000E-01  8.50000000E-01  8.50000000E-01
  8.50000000E-01  8.50000000E-01  8.50000000E-01  7.20000000E-01  8.50000000E-01
  8.50000000E-01  8.50000000E-01  8.50000000E-01  8.50000000E-01  7.20000000E-01
  8.50000000E-01  8.50000000E-01  8.50000000E-01  8.50000000E-01  8.50000000E-01
  7.20000000E-01  8.50000000E-01  8.50000000E-01  8.50000000E-01  8.50000000E-01
  8.50000000E-01  7.20000000E-01  8.50000000E-01  8.50000000E-01  8.50000000E-01
  8.50000000E-01  8.50000000E-01  7.20000000E-01  8.50000000E-01  8.50000000E-01
  8.50000000E-01  8.50000000E-01  8.50000000E-01  7.20000000E-01  8.50000000E-01
  8.50000000E-01  8.50000000E-01  8.50000000E-01  8.50000000E-01  7.20000000E-01
  8.50000000E-01  8.50000000E-01  8.50000000E-01  8.50000000E-01  8.50000000E-01
  7.20000000E-01  8.50000000E-01  8.50000000E-01  8.50000000E-01  8.50000000E-01
  8.50000000E-01  7.20000000E-01  8.50000000E-01  8.50000000E-01  8.50000000E-01
  8.50000000E-01  8.50000000E-01  7.20000000E-01  8.50000000E-01  8.50000000E-01
  8.50000000E-01  8.50000000E-01  8.50000000E-01  7.20000000E-01  8.50000000E-01
  8.50000000E-01  8.50000000E-01  8.50000000E-01  8.50000000E-01  7.20000000E-01
  8.50000000E-01  8.50000000E-01  8.50000000E-01  8.50000000E-01  8.50000000E-01
  7.20000000E-01  8.50000000E-01  8.50000000E-01  8.50000000E-01  8.50000000E-01
  8.50000000E-01  7.20000000E-01  8.50000000E-01  8.50000000E-01  8.50000000E-01
  8.50000000E-01  8.50000000E-01  7.20000000E-01  8.50000000E-01  8.50000000E-01
  8.50000000E-01  8.50000000E-01  8.50000000E-01  7.20000000E-01  8.50000000E-01
  8.50000000E-01  8.50000000E-01  8.50000000E-01  8.50000000E-01  7.20000000E-01
  8.50000000E-01  8.50000000E-01  8.50000000E-01  8.50000000E-01  8.50000000E-01
  7.20000000E-01  8.50000000E-01  8.50000000E-01  8.50000000E-01  8.50000000E-01
  8.50000000E-01  7.20000000E-01  8.50000000E-01  8.50000000E-01  8.50000000E-01
  8.50000000E-01  8.50000000E-01  7.20000000E-01  8.50000000E-01  8.50000000E-01
  8.50000000E-01  8.50000000E-01  8.50000000E-01  7.20000000E-01  8.50000000E-01
  8.50000000E-01  8.50000000E-01  8.50000000E-01  8.50000000E-01  7.20000000E-01
  8.50000000E-01  8.50000000E-01  8.50000000E-01  8.50000000E-01  8.50000000E-01
  7.20000000E-01  8.50000000E-01  8.50000000E-01  8.50000000E-01  8.50000000E-01
  8.50000000E-01  7.20000000E-01  8.50000000E-01  8.50000000E-01  8.50000000E-01
  8.50000000E-01  8.50000000E-01  7.20000000E-01  8.50000000E-01  8.50000000E-01
  8.50000000E-01  8.50000000E-01  8.50000000E-01  7.20000000E-01  8.50000000E-01
  8.50000000E-01  8.50000000E-01  8.50000000E-01  8.50000000E-01  7.20000000E-01
  8.50000000E-01  8.50000000E-01  8.50000000E-01  8.50000000E-01  8.50000000E-01
  7.20000000E-01  8.50000000E-01  8.50000000E-01  8.50000000E-01  8.50000000E-01
  8.50000000E-01  7.20000000E-01  8.50000000E-01  8.50000000E-01  8.50000000E-01
  8.50000000E-01  8.50000000E-01  7.20000000E-01  8.50000000E-01  8.50000000E-01
  8.50000000E-01  8.50000000E-01  8.50000000E-01  7.20000000E-01  8.50000000E-01
  8.50000000E-01  8.50000000E-01  8.50000000E-01  8.50000000E-01  7.20000000E-01
  8.50000000E-01  8.50000000E-01  8.50000000E-01  8.50000000E-01  8.50000000E-01
  7.20000000E-01  8.50000000E-01  8.50000000E-01  8.50000000E-01  8.50000000E-01
  8.50000000E-01  7.20000000E-01  8.50000000E-01  8.50000000E-01  8.50000000E-01
  8.50000000E-01  8.50000000E-01  7.20000000E-01  8.50000000E-01  8.50000000E-01
  8.50000000E-01  8.50000000E-01  8.50000000E-01  7.20000000E-01  8.50000000E-01
  8.50000000E-01  8.50000000E-01  8.50000000E-01  8.50000000E-01  7.20000000E-01
  8.50000000E-01  8.50000000E-01  8.50000000E-01  8.50000000E-01  8.50000000E-01
  7.20000000E-01  8.50000000E-01  8.50000000E-01  8.50000000E-01  8.50000000E-01
  8.50000000E-01  7.20000000E-01  8.50000000E-01  8.50000000E-01  8.50000000E-01
  8.50000000E-01  8.50000000E-01  7.20000000E-01  8.50000000E-01  8.50000000E-01
  8.50000000E-01  8.50000000E-01  8.50000000E-01  7.20000000E-01  8.50000000E-01
  8.50000000E-01  8.50000000E-01  8.50000000E-01  8.50000000E-01  7.20000000E-01
  8.50000000E-01  8.50000000E-01  8.50000000E-01  8.50000000E-01  8.50000000E-01
  7.20000000E-01  8.50000000E-01  8.50000000E-01  8.50000000E-01  8.50000000E-01
  8.50000000E-01  7.20000000E-01  8.50000000E-01  8.50000000E-01  8.50000000E-01
  8.50000000E-01  8.50000000E-01  7.20000000E-01  8.50000000E-01  8.50000000E-01
  8.50000000E-01  8.50000000E-01  8.50000000E-01  7.20000000E-01  8.50000000E-01
  8.50000000E-01  8.50000000E-01  8.50000000E-01  8.50000000E-01  7.20000000E-01
  8.50000000E-01  8.50000000E-01  8.50000000E-01  8.50000000E-01  8.50000000E-01
  7.20000000E-01  8.50000000E-01  8.50000000E-01  8.50000000E-01  8.50000000E-01
  8.50000000E-01  7.20000000E-01  8.50000000E-01  8.50000000E-01  8.50000000E-01
  8.50000000E-01  8.50000000E-01  7.20000000E-01  8.50000000E-01  8.50000000E-01
  8.50000000E-01  8.50000000E-01  8.50000000E-01  7.20000000E-01  8.50000000E-01
  8.50000000E-01  8.50000000E-01  8.50000000E-01  8.50000000E-01  7.20000000E-01
  8.50000000E-01  8.50000000E-01  8.50000000E-01  8.50000000E-01  8.50000000E-01
  7.20000000E-01  8.50000000E-01  8.50000000E-01  8.50000000E-01  8.50000000E-01
  8.50000000E-01  7.20000000E-01  8.50000000E-01  8.50000000E-01  8.50000000E-01
  8.50000000E-01  8.50000000E-01  7.20000000E-01  8.50000000E-01  8.50000000E-01
  8.50000000E-01  8.50000000E-01  8.50000000E-01  7.20000000E-01  8.50000000E-01
  8.50000000E-01  8.50000000E-01  8.50000000E-01  8.50000000E-01  7.20000000E-01
  8.50000000E-01  8.50000000E-01  8.50000000E-01  8.50000000E-01  8.50000000E-01
  7.20000000E-01  8.50000000E-01  8.50000000E-01  8.50000000E-01  8.50000000E-01
  8.50000000E-01  7.20000000E-01  8.50000000E-01  8.50000000E-01  8.50000000E-01
  8.50000000E-01  8.50000000E-01  7.20000000E-01  8.50000000E-01  8.50000000E-01
  8.50000000E-01  8.50000000E-01  8.50000000E-01  7.20000000E-01  8.50000000E-01
  8.50000000E-01  8.50000000E-01  8.50000000E-01  8.50000000E-01  7.20000000E-01
  8.50000000E-01  8.50000000E-01  8.50000000E-01  8.50000000E-01  8.50000000E-01
  7.20000000E-01  8.50000000E-01  8.50000000E-01  8.50000000E-01  8.50000000E-01
  8.50000000E-01  7.20000000E-01  8.50000000E-01  8.50000000E-01  8.50000000E-01
  8.50000000E-01  8.50000000E-01  7.20000000E-01  8.50000000E-01  8.50000000E-01
  8.50000000E-01  8.50000000E-01  8.50000000E-01  7.20000000E-01  8.50000000E-01
  8.50000000E-01  8.50000000E-01  8.50000000E-01  8.50000000E-01  7.20000000E-01
  8.50000000E-01  8.50000000E-01  8.50000000E-01  8.50000000E-01  8.50000000E-01
  7.20000000E-01  8.50000000E-01  8.50000000E-01  8.50000000E-01  8.50000000E-01
  8.50000000E-01  7.20000000E-01  8.50000000E-01  8.50000000E-01  8.50000000E-01
  8.50000000E-01  8.50000000E-01  7.20000000E-01  8.50000000E-01  8.50000000E-01
  8.50000000E-01  8.50000000E-01  8.50000000E-01  7.20000000E-01  8.50000000E-01
  8.50000000E-01  8.50000000E-01  8.50000000E-01  8.50000000E-01  7.20000000E-01
  8.50000000E-01  8.50000000E-01  8.50000000E-01  8.50000000E-01  8.50000000E-01
  7.20000000E-01  8.50000000E-01  8.50000000E-01  8.50000000E-01  8.50000000E-01
  8.50000000E-01  7.20000000E-01  8.50000000E-01  8.50000000E-01  8.50000000E-01
  8.50000000E-01  8.50000000E-01  7.20000000E-01  8.50000000E-01  8.50000000E-01
  8.50000000E-01  8.50000000E-01  8.50000000E-01  7.20000000E-01  8.50000000E-01
  8.50000000E-01  8.50000000E-01  8.50000000E-01  8.50000000E-01  7.20000000E-01
  8.50000000E-01  8.50000000E-01  8.50000000E-01  8.50000000E-01  8.50000000E-01
  7.20000000E-01  8.50000000E-01  8.50000000E-01  8.50000000E-01  8.50000000E-01
  8.50000000E-01  7.20000000E-01  8.50000000E-01  8.50000000E-01  8.50000000E-01
  8.50000000E-01  8.50000000E-01  7.20000000E-01  8.50000000E-01  8.50000000E-01
  8.50000000E-01  8.50000000E-01  8.50000000E-01  7.20000000E-01  8.50000000E-01
  8.50000000E-01  8.50000000E-01  8.50000000E-01  8.50000000E-01  7.20000000E-01
  8.50000000E-01  8.50000000E-01  8.50000000E-01  8.50000000E-01  8.50000000E-01
  7.20000000E-01  8.50000000E-01  8.50000000E-01  8.50000000E-01  8.50000000E-01
  8.50000000E-01  7.20000000E-01  8.50000000E-01  8.50000000E-01  8.50000000E-01
  8.50000000E-01  8.50000000E-01  7.20000000E-01  8.50000000E-01  8.50000000E-01
  8.50000000E-01  8.50000000E-01  8.50000000E-01  7.20000000E-01  8.50000000E-01
  8.50000000E-01  8.50000000E-01  8.50000000E-01  8.50000000E-01  7.20000000E-01
  8.50000000E-01  8.50000000E-01  8.50000000E-01  8.50000000E-01  8.50000000E-01
  7.20000000E-01  8.50000000E-01  8.50000000E-01  8.50000000E-01  8.50000000E-01
  8.50000000E-01  7.20000000E-01  8.50000000E-01  8.50000000E-01  8.50000000E-01
  8.50000000E-01  8.50000000E-01  7.20000000E-01  8.50000000E-01  8.50000000E-01
  8.50000000E-01  8.50000000E-01  8.50000000E-01  7.20000000E-01  8.50000000E-01
  8.50000000E-01  8.50000000E-01  8.50000000E-01  8.50000000E-01  7.20000000E-01
  8.50000000E-01  8.50000000E-01  8.50000000E-01  8.50000000E-01  8.50000000E-01
  7.20000000E-01  8.50000000E-01  8.50000000E-01  8.50000000E-01  8.50000000E-01
  8.50000000E-01  7.20000000E-01  8.50000000E-01  8.50000000E-01  8.50000000E-01
  8.50000000E-01  8.50000000E-01  7.20000000E-01  8.50000000E-01  8.50000000E-01
  8.50000000E-01  8.50000000E-01  8.50000000E-01  7.20000000E-01  8.50000000E-01
  8.50000000E-01  8.50000000E-01  8.50000000E-01  8.50000000E-01  7.20000000E-01
  8.50000000E-01  8.50000000E-01  8.50000000E-01  8.50000000E-01  8.50000000E-01
  7.20000000E-01  8.50000000E-01  8.50000000E-01  8.50000000E-01  8.50000000E-01
  8.50000000E-01  7.20000000E-01  8.50000000E-01  8.50000000E-01  8.50000000E-01
  8.50000000E-01  8.50000000E-01  7.20000000E-01  8.50000000E-01  8.50000000E-01
  8.50000000E-01  8.50000000E-01  8.50000000E-01  7.20000000E-01  8.50000000E-01
  8.50000000E-01  8.50000000E-01  8.50000000E-01  8.50000000E-01  7.20000000E-01
  8.50000000E-01  8.50000000E-01  8.50000000E-01  8.50000000E-01  8.50000000E-01
  7.20000000E-01  8.50000000E-01  8.50000000E-01  8.50000000E-01  8.50000000E-01
  8.50000000E-01  7.20000000E-01  8.50000000E-01  8.50000000E-01  8.50000000E-01
  8.50000000E-01  8.50000000E-01  7.20000000E-01  8.50000000E-01  8.50000000E-01
  8.50000000E-01  8.50000000E-01  8.50000000E-01  7.20000000E-01  8.50000000E-01
  8.50000000E-01  8.50000000E-01  8.50000000E-01  8.50000000E-01  7.20000000E-01
  8.50000000E-01  8.50000000E-01  8.50000000E-01  8.50000000E-01  8.50000000E-01
  7.20000000E-01  8.50000000E-01  8.50000000E-01  8.50000000E-01  8.50000000E-01
  8.50000000E-01  7.20000000E-01  8.50000000E-01  8.50000000E-01  8.50000000E-01
  8.50000000E-01  8.50000000E-01  7.20000000E-01  8.50000000E-01  8.50000000E-01
  8.50000000E-01  8.50000000E-01  8.50000000E-01  7.20000000E-01  8.50000000E-01
  8.50000000E-01  8.50000000E-01  8.50000000E-01  8.50000000E-01  7.20000000E-01
  8.50000000E-01  8.50000000E-01  8.50000000E-01  8.50000000E-01  8.50000000E-01
  7.20000000E-01  8.50000000E-01  8.50000000E-01  8.50000000E-01  8.50000000E-01
  8.50000000E-01  7.20000000E-01  8.50000000E-01  8.50000000E-01  8.50000000E-01
  8.50000000E-01  8.50000000E-01  7.20000000E-01  8.50000000E-01  8.50000000E-01
  8.50000000E-01  8.50000000E-01  8.50000000E-01  7.20000000E-01  8.50000000E-01
  8.50000000E-01  8.50000000E-01  8.50000000E-01  8.50000000E-01  7.20000000E-01
  8.50000000E-01  8.50000000E-01  8.50000000E-01  8.50000000E-01  8.50000000E-01
  7.20000000E-01  8.50000000E-01  8.50000000E-01  8.50000000E-01  8.50000000E-01
  8.50000000E-01  7.20000000E-01  8.50000000E-01  8.50000000E-01  8.50000000E-01
  8.50000000E-01  8.50000000E-01  7.20000000E-01  8.50000000E-01  8.50000000E-01
  8.50000000E-01  8.50000000E-01  8.50000000E-01  7.20000000E-01  8.50000000E-01
  8.50000000E-01  8.50000000E-01  8.50000000E-01  8.50000000E-01  7.20000000E-01
  8.50000000E-01  8.50000000E-01  8.50000000E-01  8.50000000E-01  8.50000000E-01
  7.20000000E-01  8.50000000E-01  8.50000000E-01  8.50000000E-01  8.50000000E-01
  8.50000000E-01  7.20000000E-01  8.50000000E-01  8.50000000E-01  8.50000000E-01
  8.50000000E-01  8.50000000E-01  7.20000000E-01  8.50000000E-01  8.50000000E-01
  8.50000000E-01  8.50000000E-01  8.50000000E-01  7.20000000E-01  8.50000000E-01
  8.50000000E-01  8.50000000E-01  8.50000000E-01  8.50000000E-01  7.20000000E-01
  8.50000000E-01  8.50000000E-01  8.50000000E-01  8.50000000E-01  8.50000000E-01
  7.20000000E-01  8.50000000E-01  8.50000000E-01  8.50000000E-01  8.50000000E-01
  8.50000000E-01  7.20000000E-01  8.50000000E-01  8.50000000E-01  8.50000000E-01
  8.50000000E-01  8.50000000E-01  7.20000000E-01  8.50000000E-01  8.50000000E-01
  8.50000000E-01  8.50000000E-01  8.50000000E-01  7.20000000E-01  8.50000000E-01
  8.50000000E-01  8.50000000E-01  8.50000000E-01  8.50000000E-01  7.20000000E-01
  8.50000000E-01  8.50000000E-01  8.50000000E-01  8.50000000E-01  8.50000000E-01
  7.20000000E-01  8.50000000E-01  8.50000000E-01  8.50000000E-01  8.50000000E-01
  8.50000000E-01  7.20000000E-01  8.50000000E-01  8.50000000E-01  8.50000000E-01
  8.50000000E-01  8.50000000E-01  7.20000000E-01  8.50000000E-01  8.50000000E-01
  8.50000000E-01  8.50000000E-01  8.50000000E-01  7.20000000E-01  8.50000000E-01
  8.50000000E-01  8.50000000E-01  8.50000000E-01  8.50000000E-01  7.20000000E-01
  8.50000000E-01  8.50000000E-01  8.50000000E-01  8.50000000E-01  8.50000000E-01
  7.20000000E-01  8.50000000E-01  8.50000000E-01  8.50000000E-01  8.50000000E-01
  8.50000000E-01  7.20000000E-01  8.50000000E-01  8.50000000E-01  8.50000000E-01
  8.50000000E-01  8.50000000E-01  7.20000000E-01  8.50000000E-01  8.50000000E-01
  8.50000000E-01  8.50000000E-01  8.50000000E-01  7.20000000E-01  8.50000000E-01
  8.50000000E-01  8.50000000E-01  8.50000000E-01  8.50000000E-01  7.20000000E-01
  8.50000000E-01  8.50000000E-01  8.50000000E-01  8.50000000E-01  8.50000000E-01
  7.20000000E-01  8.50000000E-01  8.50000000E-01  8.50000000E-01  8.50000000E-01
  8.50000000E-01  7.20000000E-01  8.50000000E-01  8.50000000E-01  8.50000000E-01
  8.50000000E-01  8.50000000E-01  7.20000000E-01  8.50000000E-01  8.50000000E-01
  8.50000000E-01  8.50000000E-01  8.50000000E-01  7.20000000E-01  8.50000000E-01
  8.50000000E-01  8.50000000E-01  8.50000000E-01  8.50000000E-01  7.20000000E-01
  8.50000000E-01  8.50000000E-01  8.50000000E-01  8.50000000E-01  8.50000000E-01
  7.20000000E-01  8.50000000E-01  8.50000000E-01  8.50000000E-01  8.50000000E-01
  8.50000000E-01  7.20000000E-01  8.50000000E-01  8.50000000E-01  8.50000000E-01
  8.50000000E-01  8.50000000E-01  7.20000000E-01  8.50000000E-01  8.50000000E-01
  8.50000000E-01  8.50000000E-01  8.50000000E-01  7.20000000E-01  8.50000000E-01
  8.50000000E-01  8.50000000E-01  8.50000000E-01  8.50000000E-01  7.20000000E-01
  8.50000000E-01  8.50000000E-01  8.50000000E-01  8.50000000E-01  8.50000000E-01
  7.20000000E-01  8.50000000E-01  8.50000000E-01  8.50000000E-01  8.50000000E-01
  8.50000000E-01  7.20000000E-01  8.50000000E-01  8.50000000E-01  8.50000000E-01
  8.50000000E-01  8.50000000E-01  7.20000000E-01  8.50000000E-01  8.50000000E-01
  8.50000000E-01  8.50000000E-01  8.50000000E-01  7.20000000E-01  8.50000000E-01
  8.50000000E-01  8.50000000E-01  8.50000000E-01  8.50000000E-01  7.20000000E-01
  8.50000000E-01  8.50000000E-01  8.50000000E-01  8.50000000E-01  8.50000000E-01
  7.20000000E-01  8.50000000E-01  8.50000000E-01  8.50000000E-01  8.50000000E-01
  8.50000000E-01  7.20000000E-01  8.50000000E-01  8.50000000E-01  8.50000000E-01
  8.50000000E-01  8.50000000E-01  7.20000000E-01  8.50000000E-01  8.50000000E-01
  8.50000000E-01  8.50000000E-01  8.50000000E-01  7.20000000E-01  8.50000000E-01
  8.50000000E-01  8.50000000E-01  8.50000000E-01  8.50000000E-01  7.20000000E-01
  8.50000000E-01  8.50000000E-01  8.50000000E-01  8.50000000E-01  8.50000000E-01
  7.20000000E-01  8.50000000E-01  8.50000000E-01  8.50000000E-01  8.50000000E-01
  8.50000000E-01  7.20000000E-01  8.50000000E-01  8.50000000E-01  8.50000000E-01
  8.50000000E-01  8.50000000E-01  7.20000000E-01  8.50000000E-01  8.50000000E-01
  8.50000000E-01  8.50000000E-01  8.50000000E-01  7.20000000E-01  8.50000000E-01
  8.50000000E-01  8.50000000E-01  8.50000000E-01  8.50000000E-01  7.20000000E-01
  8.50000000E-01  8.50000000E-01  8.50000000E-01  8.50000000E-01  8.50000000E-01
  7.20000000E-01  8.50000000E-01  8.50000000E-01  8.50000000E-01  8.50000000E-01
  8.50000000E-01  7.20000000E-01  8.50000000E-01  8.50000000E-01  8.50000000E-01
  8.50000000E-01  8.50000000E-01  7.20000000E-01  8.50000000E-01  8.50000000E-01
  8.50000000E-01  8.50000000E-01  8.50000000E-01  7.20000000E-01  8.50000000E-01
  8.50000000E-01  8.50000000E-01  8.50000000E-01  8.50000000E-01  7.20000000E-01
  8.50000000E-01  8.50000000E-01  8.50000000E-01  8.50000000E-01  8.50000000E-01
  7.20000000E-01  8.50000000E-01  8.50000000E-01  8.50000000E-01  8.50000000E-01
  8.50000000E-01  7.20000000E-01  8.50000000E-01  8.50000000E-01  8.50000000E-01
  8.50000000E-01  8.50000000E-01  7.20000000E-01  8.50000000E-01  8.50000000E-01
  8.50000000E-01  8.50000000E-01  8.50000000E-01  7.20000000E-01  8.50000000E-01
  8.50000000E-01  8.50000000E-01  8.50000000E-01  8.50000000E-01  7.20000000E-01
  8.50000000E-01  8.50000000E-01  8.50000000E-01  8.50000000E-01  8.50000000E-01
  7.20000000E-01  8.50000000E-01  8.50000000E-01  8.50000000E-01  8.50000000E-01
  8.50000000E-01  7.20000000E-01  8.50000000E-01  8.50000000E-01  8.50000000E-01
  8.50000000E-01  8.50000000E-01  7.20000000E-01  8.50000000E-01  8.50000000E-01
  8.50000000E-01  8.50000000E-01  8.50000000E-01  7.20000000E-01  8.50000000E-01
  8.50000000E-01  8.50000000E-01  8.50000000E-01  8.50000000E-01  7.20000000E-01
  8.50000000E-01  8.50000000E-01  8.50000000E-01  8.50000000E-01  8.50000000E-01
  7.20000000E-01  8.50000000E-01  8.50000000E-01  8.50000000E-01  8.50000000E-01
  8.50000000E-01  7.20000000E-01  8.50000000E-01  8.50000000E-01  8.50000000E-01
  8.50000000E-01  8.50000000E-01  7.20000000E-01  8.50000000E-01  8.50000000E-01
  8.50000000E-01  8.50000000E-01  8.50000000E-01  7.20000000E-01  8.50000000E-01
  8.50000000E-01  8.50000000E-01  8.50000000E-01  8.50000000E-01  7.20000000E-01
  8.50000000E-01  8.50000000E-01  8.50000000E-01  8.50000000E-01  8.50000000E-01
  7.20000000E-01  8.50000000E-01  8.50000000E-01  8.50000000E-01  8.50000000E-01
  8.50000000E-01  7.20000000E-01  8.50000000E-01  8.50000000E-01  8.50000000E-01
  8.50000000E-01  8.50000000E-01  7.20000000E-01  8.50000000E-01  8.50000000E-01
  8.50000000E-01  8.50000000E-01  8.50000000E-01  7.20000000E-01  8.50000000E-01
  8.50000000E-01  8.50000000E-01  8.50000000E-01  8.50000000E-01  7.20000000E-01
  8.50000000E-01  8.50000000E-01  8.50000000E-01  8.50000000E-01  8.50000000E-01
  7.20000000E-01  8.50000000E-01  8.50000000E-01  8.50000000E-01  8.50000000E-01
  8.50000000E-01  7.20000000E-01  8.50000000E-01  8.50000000E-01  8.50000000E-01
  8.50000000E-01  8.50000000E-01  7.20000000E-01  8.50000000E-01  8.50000000E-01
  8.50000000E-01  8.50000000E-01  8.50000000E-01  7.20000000E-01  8.50000000E-01
  8.50000000E-01  8.50000000E-01  8.50000000E-01  8.50000000E-01  7.20000000E-01
  8.50000000E-01  8.50000000E-01  8.50000000E-01  8.50000000E-01  8.50000000E-01
  7.20000000E-01  8.50000000E-01  8.50000000E-01  8.50000000E-01  8.50000000E-01
  8.50000000E-01  7.20000000E-01  8.50000000E-01  8.50000000E-01  8.50000000E-01
  8.50000000E-01  8.50000000E-01  7.20000000E-01  8.50000000E-01  8.50000000E-01
  8.50000000E-01  8.50000000E-01  8.50000000E-01  7.20000000E-01  8.50000000E-01
  8.50000000E-01  8.50000000E-01  8.50000000E-01  8.50000000E-01  7.20000000E-01
  8.50000000E-01  8.50000000E-01  8.50000000E-01  8.50000000E-01  8.50000000E-01
  7.20000000E-01  8.50000000E-01  8.50000000E-01  8.50000000E-01  8.50000000E-01
  8.50000000E-01  7.20000000E-01  8.50000000E-01  8.50000000E-01  8.50000000E-01
  8.50000000E-01  8.50000000E-01  7.20000000E-01  8.50000000E-01  8.50000000E-01
  8.50000000E-01  8.50000000E-01  8.50000000E-01  7.20000000E-01  8.50000000E-01
  8.50000000E-01  8.50000000E-01  8.50000000E-01  8.50000000E-01  7.20000000E-01
  8.50000000E-01  8.50000000E-01  8.50000000E-01  8.50000000E-01  8.50000000E-01
  7.20000000E-01  8.50000000E-01  8.50000000E-01  8.50000000E-01  8.50000000E-01
  8.50000000E-01  7.20000000E-01  8.50000000E-01  8.50000000E-01  8.50000000E-01
  8.50000000E-01  8.50000000E-01  7.20000000E-01  8.50000000E-01  8.50000000E-01
  8.50000000E-01  8.50000000E-01  8.50000000E-01  7.20000000E-01  8.50000000E-01
  8.50000000E-01  8.50000000E-01  8.50000000E-01  8.50000000E-01  7.20000000E-01
  8.50000000E-01  8.50000000E-01  8.50000000E-01  8.50000000E-01  8.50000000E-01
  7.20000000E-01  8.50000000E-01  8.50000000E-01  8.50000000E-01  8.50000000E-01
  8.50000000E-01  7.20000000E-01  8.50000000E-01  8.50000000E-01  8.50000000E-01
  8.50000000E-01  8.50000000E-01  7.20000000E-01  8.50000000E-01  8.50000000E-01
  8.50000000E-01  8.50000000E-01  8.50000000E-01  7.20000000E-01  8.50000000E-01
  8.50000000E-01  8.50000000E-01  8.50000000E-01  8.50000000E-01  7.20000000E-01
  8.50000000E-01  8.50000000E-01  8.50000000E-01  8.50000000E-01  8.50000000E-01
  7.20000000E-01  8.50000000E-01  8.50000000E-01  8.50000000E-01  8.50000000E-01
  8.50000000E-01  7.20000000E-01  8.50000000E-01  8.50000000E-01  8.50000000E-01
  8.50000000E-01  8.50000000E-01  7.20000000E-01  8.50000000E-01  8.50000000E-01
  8.50000000E-01  8.50000000E-01  8.50000000E-01  7.20000000E-01  8.50000000E-01
  8.50000000E-01  8.50000000E-01  8.50000000E-01  8.50000000E-01  7.20000000E-01
  8.50000000E-01  8.50000000E-01  8.50000000E-01  8.50000000E-01  8.50000000E-01
  7.20000000E-01  8.50000000E-01  8.50000000E-01  8.50000000E-01  8.50000000E-01
  8.50000000E-01  7.20000000E-01  8.50000000E-01  8.50000000E-01  8.50000000E-01
  8.50000000E-01  8.50000000E-01  7.20000000E-01  8.50000000E-01  8.50000000E-01
  8.50000000E-01  8.50000000E-01  8.50000000E-01  7.20000000E-01  8.50000000E-01
  8.50000000E-01  8.50000000E-01  8.50000000E-01  8.50000000E-01  7.20000000E-01
  8.50000000E-01  8.50000000E-01  8.50000000E-01  8.50000000E-01  8.50000000E-01
  7.20000000E-01  8.50000000E-01  8.50000000E-01  8.50000000E-01  8.50000000E-01
  8.50000000E-01  7.20000000E-01  8.50000000E-01  8.50000000E-01  8.50000000E-01
  8.50000000E-01  8.50000000E-01  7.20000000E-01  8.50000000E-01  8.50000000E-01
  8.50000000E-01  8.50000000E-01  8.50000000E-01  7.20000000E-01  8.50000000E-01
  8.50000000E-01  8.50000000E-01  8.50000000E-01  8.50000000E-01  7.20000000E-01
  8.50000000E-01  8.50000000E-01  8.50000000E-01  8.50000000E-01  8.50000000E-01
  7.20000000E-01  8.50000000E-01  8.50000000E-01  8.50000000E-01  8.50000000E-01
  8.50000000E-01  7.20000000E-01  8.50000000E-01  8.50000000E-01  8.50000000E-01
  8.50000000E-01  8.50000000E-01  7.20000000E-01  8.50000000E-01  8.50000000E-01
  8.50000000E-01  8.50000000E-01  8.50000000E-01  7.20000000E-01  8.50000000E-01
  8.50000000E-01  8.50000000E-01  8.50000000E-01  8.50000000E-01  7.20000000E-01
  8.50000000E-01  8.50000000E-01  8.50000000E-01  8.50000000E-01  8.50000000E-01
  7.20000000E-01  8.50000000E-01  8.50000000E-01  8.50000000E-01  8.50000000E-01
  8.50000000E-01  7.20000000E-01  8.50000000E-01  8.50000000E-01  8.50000000E-01
  8.50000000E-01  8.50000000E-01  7.20000000E-01  8.50000000E-01  8.50000000E-01
  8.50000000E-01  8.50000000E-01  8.50000000E-01  7.20000000E-01  8.50000000E-01
  8.50000000E-01  8.50000000E-01  8.50000000E-01  8.50000000E-01  7.20000000E-01
  8.50000000E-01  8.50000000E-01  8.50000000E-01  8.50000000E-01  8.50000000E-01
  7.20000000E-01  8.50000000E-01  8.50000000E-01  8.50000000E-01  8.50000000E-01
  8.50000000E-01  7.20000000E-01  8.50000000E-01  8.50000000E-01  8.50000000E-01
  8.50000000E-01  8.50000000E-01  7.20000000E-01  8.50000000E-01  8.50000000E-01
  8.50000000E-01  8.50000000E-01  8.50000000E-01  7.20000000E-01  8.50000000E-01
  8.50000000E-01  8.50000000E-01  8.50000000E-01  8.50000000E-01  7.20000000E-01
  8.50000000E-01  8.50000000E-01  8.50000000E-01  8.50000000E-01  8.50000000E-01
  7.20000000E-01  8.50000000E-01  8.50000000E-01  8.50000000E-01  8.50000000E-01
  8.50000000E-01  7.20000000E-01  8.50000000E-01  8.50000000E-01  8.50000000E-01
  8.50000000E-01  8.50000000E-01  7.20000000E-01  8.50000000E-01  8.50000000E-01
  8.50000000E-01  8.50000000E-01  8.50000000E-01  7.20000000E-01  8.50000000E-01
  8.50000000E-01  8.50000000E-01  8.50000000E-01  8.50000000E-01  7.20000000E-01
  8.50000000E-01  8.50000000E-01  8.50000000E-01  8.50000000E-01  8.50000000E-01
  7.20000000E-01  8.50000000E-01  8.50000000E-01  8.50000000E-01  8.50000000E-01
  8.50000000E-01  7.20000000E-01  8.50000000E-01  8.50000000E-01  8.50000000E-01
  8.50000000E-01  8.50000000E-01  7.20000000E-01  8.50000000E-01  8.50000000E-01
  8.50000000E-01  8.50000000E-01  8.50000000E-01  7.20000000E-01  8.50000000E-01
  8.50000000E-01  8.50000000E-01  8.50000000E-01  8.50000000E-01  7.20000000E-01
  8.50000000E-01  8.50000000E-01  8.50000000E-01  8.50000000E-01  8.50000000E-01
  7.20000000E-01  8.50000000E-01  8.50000000E-01  8.50000000E-01  8.50000000E-01
  8.50000000E-01  7.20000000E-01  8.50000000E-01  8.50000000E-01  8.50000000E-01
  8.50000000E-01  8.50000000E-01  7.20000000E-01  8.50000000E-01  8.50000000E-01
  8.50000000E-01  8.50000000E-01  8.50000000E-01  7.20000000E-01  8.50000000E-01
  8.50000000E-01  8.50000000E-01  8.50000000E-01  8.50000000E-01  7.20000000E-01
  8.50000000E-01  8.50000000E-01  8.50000000E-01  8.50000000E-01  8.50000000E-01
  7.20000000E-01  8.50000000E-01  8.50000000E-01  8.50000000E-01  8.50000000E-01
  8.50000000E-01  7.20000000E-01  8.50000000E-01  8.50000000E-01  8.50000000E-01
  8.50000000E-01  8.50000000E-01  7.20000000E-01  8.50000000E-01  8.50000000E-01
  8.50000000E-01  8.50000000E-01  8.50000000E-01  7.20000000E-01  8.50000000E-01
  8.50000000E-01  8.50000000E-01  8.50000000E-01  8.50000000E-01  7.20000000E-01
  8.50000000E-01  8.50000000E-01  8.50000000E-01  8.50000000E-01  8.50000000E-01
  7.20000000E-01  8.50000000E-01  8.50000000E-01  8.50000000E-01  8.50000000E-01
  8.50000000E-01  7.20000000E-01  8.50000000E-01  8.50000000E-01  8.50000000E-01
  8.50000000E-01  8.50000000E-01  7.20000000E-01  8.50000000E-01  8.50000000E-01
  8.50000000E-01  8.50000000E-01  8.50000000E-01  7.20000000E-01  8.50000000E-01
  8.50000000E-01  8.50000000E-01  8.50000000E-01  8.50000000E-01  7.20000000E-01
  8.50000000E-01  8.50000000E-01  8.50000000E-01  8.50000000E-01  8.50000000E-01
  7.20000000E-01  8.50000000E-01  8.50000000E-01  8.50000000E-01  8.50000000E-01
  8.50000000E-01  7.20000000E-01  8.50000000E-01  8.50000000E-01  8.50000000E-01
  8.50000000E-01  8.50000000E-01  7.20000000E-01  8.50000000E-01  8.50000000E-01
  8.50000000E-01  8.50000000E-01  8.50000000E-01  7.20000000E-01  8.50000000E-01
  8.50000000E-01  8.50000000E-01  8.50000000E-01  8.50000000E-01  7.20000000E-01
  8.50000000E-01  8.50000000E-01  8.50000000E-01  8.50000000E-01  8.50000000E-01
  7.20000000E-01  8.50000000E-01  8.50000000E-01  8.50000000E-01  8.50000000E-01
  8.50000000E-01  7.20000000E-01  8.50000000E-01  8.50000000E-01  8.50000000E-01
  8.50000000E-01  8.50000000E-01  7.20000000E-01  8.50000000E-01  8.50000000E-01
  8.50000000E-01  8.50000000E-01  8.50000000E-01  7.20000000E-01  8.50000000E-01
  8.50000000E-01  8.50000000E-01  8.50000000E-01  8.50000000E-01  7.20000000E-01
  8.50000000E-01  8.50000000E-01  8.50000000E-01  8.50000000E-01  8.50000000E-01
  7.20000000E-01  8.50000000E-01  8.50000000E-01  8.50000000E-01  8.50000000E-01
  8.50000000E-01  7.20000000E-01  8.50000000E-01  8.50000000E-01  8.50000000E-01
  8.50000000E-01  8.50000000E-01  7.20000000E-01  8.50000000E-01  8.50000000E-01
  8.50000000E-01  8.50000000E-01  8.50000000E-01  7.20000000E-01  8.50000000E-01
  8.50000000E-01  8.50000000E-01  8.50000000E-01  8.50000000E-01  7.20000000E-01
  8.50000000E-01  8.50000000E-01  8.50000000E-01  8.50000000E-01  8.50000000E-01
  7.20000000E-01  8.50000000E-01  8.50000000E-01  8.50000000E-01  8.50000000E-01
  8.50000000E-01  7.20000000E-01  8.50000000E-01  8.50000000E-01  8.50000000E-01
  8.50000000E-01  8.50000000E-01  7.20000000E-01  8.50000000E-01  8.50000000E-01
  8.50000000E-01  8.50000000E-01  8.50000000E-01  7.20000000E-01  8.50000000E-01
  8.50000000E-01  8.50000000E-01  8.50000000E-01  8.50000000E-01  7.20000000E-01
  8.50000000E-01  8.50000000E-01  8.50000000E-01  8.50000000E-01  8.50000000E-01
  7.20000000E-01  8.50000000E-01  8.50000000E-01  8.50000000E-01  8.50000000E-01
  8.50000000E-01  7.20000000E-01  8.50000000E-01  8.50000000E-01  8.50000000E-01
  8.50000000E-01  8.50000000E-01  7.20000000E-01  8.50000000E-01  8.50000000E-01
  8.50000000E-01  8.50000000E-01  8.50000000E-01  7.20000000E-01  8.50000000E-01
  8.50000000E-01  8.50000000E-01  8.50000000E-01  8.50000000E-01  7.20000000E-01
  8.50000000E-01  8.50000000E-01  8.50000000E-01  8.50000000E-01  8.50000000E-01
  7.20000000E-01  8.50000000E-01  8.50000000E-01  8.50000000E-01  8.50000000E-01
  8.50000000E-01  7.20000000E-01  8.50000000E-01  8.50000000E-01  8.50000000E-01
  8.50000000E-01  8.50000000E-01  7.20000000E-01  8.50000000E-01  8.50000000E-01
  8.50000000E-01  8.50000000E-01  8.50000000E-01  7.20000000E-01  8.50000000E-01
  8.50000000E-01  8.50000000E-01  8.50000000E-01  8.50000000E-01  7.20000000E-01
  8.50000000E-01  8.50000000E-01  8.50000000E-01  8.50000000E-01  8.50000000E-01
  7.20000000E-01  8.50000000E-01  8.50000000E-01  8.50000000E-01  8.50000000E-01
  8.50000000E-01  7.20000000E-01  8.50000000E-01  8.50000000E-01  8.50000000E-01
  8.50000000E-01  8.50000000E-01  7.20000000E-01  8.50000000E-01  8.50000000E-01
  8.50000000E-01  8.50000000E-01  8.50000000E-01  7.20000000E-01  8.50000000E-01
  8.50000000E-01  8.50000000E-01  8.50000000E-01  8.50000000E-01  7.20000000E-01
  8.50000000E-01  8.50000000E-01  8.50000000E-01  8.50000000E-01  8.50000000E-01
  7.20000000E-01  8.50000000E-01  8.50000000E-01  8.50000000E-01  8.50000000E-01
  8.50000000E-01  7.20000000E-01  8.50000000E-01  8.50000000E-01  8.50000000E-01
  8.50000000E-01  8.50000000E-01  7.20000000E-01  8.50000000E-01  8.50000000E-01
  8.50000000E-01  8.50000000E-01  8.50000000E-01  7.20000000E-01  8.50000000E-01
  8.50000000E-01  8.50000000E-01  8.50000000E-01  8.50000000E-01  7.20000000E-01
  8.50000000E-01  8.50000000E-01  8.50000000E-01  8.50000000E-01  8.50000000E-01
  7.20000000E-01  8.50000000E-01  8.50000000E-01  8.50000000E-01  8.50000000E-01
  8.50000000E-01  7.20000000E-01  8.50000000E-01  8.50000000E-01  8.50000000E-01
  8.50000000E-01  8.50000000E-01  7.20000000E-01  8.50000000E-01  8.50000000E-01
  8.50000000E-01  8.50000000E-01  8.50000000E-01  7.20000000E-01  8.50000000E-01
  8.50000000E-01  8.50000000E-01  8.50000000E-01  8.50000000E-01  7.20000000E-01
  8.50000000E-01  8.50000000E-01  8.50000000E-01  8.50000000E-01  8.50000000E-01
  7.20000000E-01  8.50000000E-01  8.50000000E-01  8.50000000E-01  8.50000000E-01
  8.50000000E-01  7.20000000E-01  8.50000000E-01  8.50000000E-01  8.50000000E-01
  8.50000000E-01  8.50000000E-01  7.20000000E-01  8.50000000E-01  8.50000000E-01
  8.50000000E-01  8.50000000E-01  8.50000000E-01  7.20000000E-01  8.50000000E-01
  8.50000000E-01  8.50000000E-01  8.50000000E-01  8.50000000E-01  7.20000000E-01
  8.50000000E-01  8.50000000E-01  8.50000000E-01  8.50000000E-01  8.50000000E-01
  7.20000000E-01  8.50000000E-01  8.50000000E-01  8.50000000E-01  8.50000000E-01
  8.50000000E-01  7.20000000E-01  8.50000000E-01  8.50000000E-01  8.50000000E-01
  8.50000000E-01  8.50000000E-01  7.20000000E-01  8.50000000E-01  8.50000000E-01
  8.50000000E-01  8.50000000E-01  8.50000000E-01  7.20000000E-01  8.50000000E-01
  8.50000000E-01  8.50000000E-01  8.50000000E-01  8.50000000E-01  7.20000000E-01
  8.50000000E-01  8.50000000E-01  8.50000000E-01  8.50000000E-01  8.50000000E-01
  7.20000000E-01  8.50000000E-01  8.50000000E-01  8.50000000E-01  8.50000000E-01
  8.50000000E-01  7.20000000E-01  8.50000000E-01  8.50000000E-01  8.50000000E-01
  8.50000000E-01  8.50000000E-01  7.20000000E-01  8.50000000E-01  8.50000000E-01
  8.50000000E-01  8.50000000E-01  8.50000000E-01  7.20000000E-01  8.50000000E-01
  8.50000000E-01  8.50000000E-01  8.50000000E-01  8.50000000E-01  7.20000000E-01
  8.50000000E-01  8.50000000E-01  8.50000000E-01  8.50000000E-01  8.50000000E-01
  7.20000000E-01  8.50000000E-01  8.50000000E-01  8.50000000E-01  8.50000000E-01
  8.50000000E-01  7.20000000E-01  8.50000000E-01  8.50000000E-01  8.50000000E-01
  8.50000000E-01  8.50000000E-01  7.20000000E-01  8.50000000E-01  8.50000000E-01
  8.50000000E-01  8.50000000E-01  8.50000000E-01  7.20000000E-01  8.50000000E-01
  8.50000000E-01  8.50000000E-01  8.50000000E-01  8.50000000E-01  7.20000000E-01
  8.50000000E-01  8.50000000E-01  8.50000000E-01  8.50000000E-01  8.50000000E-01
  7.20000000E-01  8.50000000E-01  8.50000000E-01  8.50000000E-01  8.50000000E-01
  8.50000000E-01  7.20000000E-01  8.50000000E-01  8.50000000E-01  8.50000000E-01
  8.50000000E-01  8.50000000E-01  7.20000000E-01  8.50000000E-01  8.50000000E-01
  8.50000000E-01  8.50000000E-01  8.50000000E-01  7.20000000E-01  8.50000000E-01
  8.50000000E-01  8.50000000E-01  8.50000000E-01  8.50000000E-01  7.20000000E-01
  8.50000000E-01  8.50000000E-01  8.50000000E-01  8.50000000E-01  8.50000000E-01
  7.20000000E-01  8.50000000E-01  8.50000000E-01  8.50000000E-01  8.50000000E-01
  8.50000000E-01  7.20000000E-01  8.50000000E-01  8.50000000E-01  8.50000000E-01
  8.50000000E-01  8.50000000E-01  7.20000000E-01  8.50000000E-01  8.50000000E-01
  8.50000000E-01  8.50000000E-01  8.50000000E-01  7.20000000E-01  8.50000000E-01
  8.50000000E-01  8.50000000E-01  8.50000000E-01  8.50000000E-01  7.20000000E-01
  8.50000000E-01  8.50000000E-01  8.50000000E-01  8.50000000E-01  8.50000000E-01
  7.20000000E-01  8.50000000E-01  8.50000000E-01  8.50000000E-01  8.50000000E-01
  8.50000000E-01  7.20000000E-01  8.50000000E-01  8.50000000E-01  8.50000000E-01
  8.50000000E-01  8.50000000E-01  7.20000000E-01  8.50000000E-01  8.50000000E-01
  8.50000000E-01  8.50000000E-01  8.50000000E-01  7.20000000E-01  8.50000000E-01
  8.50000000E-01  8.50000000E-01  8.50000000E-01  8.50000000E-01  7.20000000E-01
  8.50000000E-01  8.50000000E-01  8.50000000E-01  8.50000000E-01  8.50000000E-01
  7.20000000E-01  8.50000000E-01  8.50000000E-01  8.50000000E-01  8.50000000E-01
  8.50000000E-01  7.20000000E-01  8.50000000E-01  8.50000000E-01  8.50000000E-01
  8.50000000E-01  8.50000000E-01  7.20000000E-01  8.50000000E-01  8.50000000E-01
  8.50000000E-01  8.50000000E-01  8.50000000E-01  7.20000000E-01  8.50000000E-01
  8.50000000E-01  8.50000000E-01  8.50000000E-01  8.50000000E-01  7.20000000E-01
  8.50000000E-01  8.50000000E-01  8.50000000E-01  8.50000000E-01  8.50000000E-01
  7.20000000E-01  8.50000000E-01  8.50000000E-01  8.50000000E-01  8.50000000E-01
  8.50000000E-01  7.20000000E-01  8.50000000E-01  8.50000000E-01  8.50000000E-01
  8.50000000E-01  8.50000000E-01  7.20000000E-01  8.50000000E-01  8.50000000E-01
  8.50000000E-01  8.50000000E-01  8.50000000E-01  7.20000000E-01  8.50000000E-01
  8.50000000E-01  8.50000000E-01  8.50000000E-01  8.50000000E-01  7.20000000E-01
  8.50000000E-01  8.50000000E-01  8.50000000E-01  8.50000000E-01  8.50000000E-01
  7.20000000E-01  8.50000000E-01  8.50000000E-01  8.50000000E-01  8.50000000E-01
  8.50000000E-01  7.20000000E-01  8.50000000E-01  8.50000000E-01  8.50000000E-01
  8.50000000E-01  8.50000000E-01  7.20000000E-01  8.50000000E-01  8.50000000E-01
  8.50000000E-01  8.50000000E-01  8.50000000E-01  7.20000000E-01  8.50000000E-01
  8.50000000E-01  8.50000000E-01  8.50000000E-01  8.50000000E-01  7.20000000E-01
  8.50000000E-01  8.50000000E-01  8.50000000E-01  8.50000000E-01  8.50000000E-01
  7.20000000E-01  8.50000000E-01  8.50000000E-01  8.50000000E-01  8.50000000E-01
  8.50000000E-01  7.20000000E-01  8.50000000E-01  8.50000000E-01  8.50000000E-01
  8.50000000E-01  8.50000000E-01  7.20000000E-01  8.50000000E-01  8.50000000E-01
  8.50000000E-01  8.50000000E-01  8.50000000E-01  7.20000000E-01  8.50000000E-01
  8.50000000E-01  8.50000000E-01  8.50000000E-01  8.50000000E-01  7.20000000E-01
  8.50000000E-01  8.50000000E-01  8.50000000E-01  8.50000000E-01  8.50000000E-01
  7.20000000E-01  8.50000000E-01  8.50000000E-01  8.50000000E-01  8.50000000E-01
  8.50000000E-01  7.20000000E-01  8.50000000E-01  8.50000000E-01  8.50000000E-01
  8.50000000E-01  8.50000000E-01  7.20000000E-01  8.50000000E-01  8.50000000E-01
  8.50000000E-01  8.50000000E-01  8.50000000E-01  7.20000000E-01  8.50000000E-01
  8.50000000E-01  8.50000000E-01  8.50000000E-01  8.50000000E-01  7.20000000E-01
  8.50000000E-01  8.50000000E-01  8.50000000E-01  8.50000000E-01  8.50000000E-01
  7.20000000E-01  8.50000000E-01  8.50000000E-01  8.50000000E-01  8.50000000E-01
  8.50000000E-01  7.20000000E-01  8.50000000E-01  8.50000000E-01  8.50000000E-01
  8.50000000E-01  8.50000000E-01  7.20000000E-01  8.50000000E-01  8.50000000E-01
  8.50000000E-01  8.50000000E-01  8.50000000E-01  7.20000000E-01  8.50000000E-01
  8.50000000E-01  8.50000000E-01  8.50000000E-01  8.50000000E-01  7.20000000E-01
  8.50000000E-01  8.50000000E-01  8.50000000E-01  8.50000000E-01  8.50000000E-01
  7.20000000E-01  8.50000000E-01  8.50000000E-01  8.50000000E-01  8.50000000E-01
  8.50000000E-01  7.20000000E-01  8.50000000E-01  8.50000000E-01  8.50000000E-01
  8.50000000E-01  8.50000000E-01  7.20000000E-01  8.50000000E-01  8.50000000E-01
  8.50000000E-01  8.50000000E-01  8.50000000E-01  7.20000000E-01  8.50000000E-01
  8.50000000E-01  8.50000000E-01  8.50000000E-01  8.50000000E-01  7.20000000E-01
  8.50000000E-01  8.50000000E-01  8.50000000E-01  8.50000000E-01  8.50000000E-01
  7.20000000E-01  8.50000000E-01  8.50000000E-01  8.50000000E-01  8.50000000E-01
  8.50000000E-01  7.20000000E-01  8.50000000E-01  8.50000000E-01  8.50000000E-01
  8.50000000E-01  8.50000000E-01  7.20000000E-01  8.50000000E-01  8.50000000E-01
  8.50000000E-01  8.50000000E-01  8.50000000E-01  7.20000000E-01  8.50000000E-01
  8.50000000E-01  8.50000000E-01  8.50000000E-01  8.50000000E-01  7.20000000E-01
  8.50000000E-01  8.50000000E-01  8.50000000E-01  8.50000000E-01  8.50000000E-01
  7.20000000E-01  8.50000000E-01  8.50000000E-01  8.50000000E-01  8.50000000E-01
  8.50000000E-01  7.20000000E-01  8.50000000E-01  8.50000000E-01  8.50000000E-01
  8.50000000E-01  8.50000000E-01  7.20000000E-01  8.50000000E-01  8.50000000E-01
  8.50000000E-01  8.50000000E-01  8.50000000E-01  7.20000000E-01  8.50000000E-01
  8.50000000E-01  8.50000000E-01  8.50000000E-01  8.50000000E-01  7.20000000E-01
  8.50000000E-01  8.50000000E-01  8.50000000E-01  8.50000000E-01  8.50000000E-01
  7.20000000E-01  8.50000000E-01  8.50000000E-01  8.50000000E-01  8.50000000E-01
  8.50000000E-01  7.20000000E-01  8.50000000E-01  8.50000000E-01  8.50000000E-01
  8.50000000E-01  8.50000000E-01  7.20000000E-01  8.50000000E-01  8.50000000E-01
  8.50000000E-01  8.50000000E-01  8.50000000E-01  7.20000000E-01  8.50000000E-01
  8.50000000E-01  8.50000000E-01  8.50000000E-01  8.50000000E-01  7.20000000E-01
  8.50000000E-01  8.50000000E-01  8.50000000E-01  8.50000000E-01  8.50000000E-01
  7.20000000E-01  8.50000000E-01  8.50000000E-01  8.50000000E-01  8.50000000E-01
  8.50000000E-01  7.20000000E-01  8.50000000E-01  8.50000000E-01  8.50000000E-01
  8.50000000E-01  8.50000000E-01  7.20000000E-01  8.50000000E-01  8.50000000E-01
  8.50000000E-01  8.50000000E-01  8.50000000E-01  7.20000000E-01  8.50000000E-01
  8.50000000E-01  8.50000000E-01  8.50000000E-01  8.50000000E-01  7.20000000E-01
  8.50000000E-01  8.50000000E-01  8.50000000E-01  8.50000000E-01  8.50000000E-01
  7.20000000E-01  8.50000000E-01  8.50000000E-01  8.50000000E-01  8.50000000E-01
  8.50000000E-01  7.20000000E-01  8.50000000E-01  8.50000000E-01  8.50000000E-01
  8.50000000E-01  8.50000000E-01  7.20000000E-01  8.50000000E-01  8.50000000E-01
  8.50000000E-01  8.50000000E-01  8.50000000E-01  7.20000000E-01  8.50000000E-01
  8.50000000E-01  8.50000000E-01  8.50000000E-01  8.50000000E-01  7.20000000E-01
  8.50000000E-01  8.50000000E-01  8.50000000E-01  8.50000000E-01  8.50000000E-01
  7.20000000E-01  8.50000000E-01  8.50000000E-01  8.50000000E-01  8.50000000E-01
  8.50000000E-01  7.20000000E-01  8.50000000E-01  8.50000000E-01  8.50000000E-01
  8.50000000E-01  8.50000000E-01  7.20000000E-01  8.50000000E-01  8.50000000E-01
  8.50000000E-01  8.50000000E-01  8.50000000E-01  7.20000000E-01  8.50000000E-01
  8.50000000E-01  8.50000000E-01  8.50000000E-01  8.50000000E-01  7.20000000E-01
  8.50000000E-01  8.50000000E-01  8.50000000E-01  8.50000000E-01  8.50000000E-01
  7.20000000E-01  8.50000000E-01  8.50000000E-01  8.50000000E-01  8.50000000E-01
  8.50000000E-01  7.20000000E-01  8.50000000E-01  8.50000000E-01  8.50000000E-01
  8.50000000E-01  8.50000000E-01  7.20000000E-01  8.50000000E-01  8.50000000E-01
  8.50000000E-01  8.50000000E-01  8.50000000E-01  7.20000000E-01  8.50000000E-01
  8.50000000E-01  8.50000000E-01  8.50000000E-01  8.50000000E-01  7.20000000E-01
  8.50000000E-01  8.50000000E-01  8.50000000E-01  8.50000000E-01  8.50000000E-01
  7.20000000E-01  8.50000000E-01  8.50000000E-01  8.50000000E-01  8.50000000E-01
  8.50000000E-01  7.20000000E-01  8.50000000E-01  8.50000000E-01  8.50000000E-01
  8.50000000E-01  8.50000000E-01  7.20000000E-01  8.50000000E-01  8.50000000E-01
  8.50000000E-01  8.50000000E-01  8.50000000E-01  7.20000000E-01  8.50000000E-01
  8.50000000E-01  8.50000000E-01  8.50000000E-01  8.50000000E-01  7.20000000E-01
  8.50000000E-01  8.50000000E-01  8.50000000E-01  8.50000000E-01  8.50000000E-01
  7.20000000E-01  8.50000000E-01  8.50000000E-01  8.50000000E-01  8.50000000E-01
  8.50000000E-01  7.20000000E-01  8.50000000E-01  8.50000000E-01  8.50000000E-01
  8.50000000E-01  8.50000000E-01  7.20000000E-01  8.50000000E-01  8.50000000E-01
  8.50000000E-01  8.50000000E-01  8.50000000E-01  7.20000000E-01  8.50000000E-01
  8.50000000E-01  8.50000000E-01  8.50000000E-01  8.50000000E-01  7.20000000E-01
  8.50000000E-01  8.50000000E-01  8.50000000E-01  8.50000000E-01  8.50000000E-01
  7.20000000E-01  8.50000000E-01  8.50000000E-01  8.50000000E-01  8.50000000E-01
  8.50000000E-01  7.20000000E-01  8.50000000E-01  8.50000000E-01  8.50000000E-01
  8.50000000E-01  8.50000000E-01  7.20000000E-01  8.50000000E-01  8.50000000E-01
  8.50000000E-01  8.50000000E-01  8.50000000E-01  7.20000000E-01  8.50000000E-01
  8.50000000E-01  8.50000000E-01  8.50000000E-01  8.50000000E-01  7.20000000E-01
  8.50000000E-01  8.50000000E-01  8.50000000E-01  8.50000000E-01  8.50000000E-01
  7.20000000E-01  8.50000000E-01  8.50000000E-01  8.50000000E-01  8.50000000E-01
  8.50000000E-01  7.20000000E-01  8.50000000E-01  8.50000000E-01  8.50000000E-01
  8.50000000E-01  8.50000000E-01  7.20000000E-01  8.50000000E-01  8.50000000E-01
  8.50000000E-01  8.50000000E-01  8.50000000E-01  7.20000000E-01  8.50000000E-01
  8.50000000E-01  8.50000000E-01  8.50000000E-01  8.50000000E-01  7.20000000E-01
  8.50000000E-01  8.50000000E-01  8.50000000E-01  8.50000000E-01  8.50000000E-01
  7.20000000E-01  8.50000000E-01  8.50000000E-01  8.50000000E-01  8.50000000E-01
  8.50000000E-01  7.20000000E-01  8.50000000E-01  8.50000000E-01  8.50000000E-01
  8.50000000E-01  8.50000000E-01  7.20000000E-01  8.50000000E-01  8.50000000E-01
  8.50000000E-01  8.50000000E-01  8.50000000E-01  7.20000000E-01  8.50000000E-01
  8.50000000E-01  8.50000000E-01  8.50000000E-01  8.50000000E-01  7.20000000E-01
  8.50000000E-01  8.50000000E-01  8.50000000E-01  8.50000000E-01  8.50000000E-01
  7.20000000E-01  8.50000000E-01  8.50000000E-01  8.50000000E-01  8.50000000E-01
  8.50000000E-01  7.20000000E-01  8.50000000E-01  8.50000000E-01  8.50000000E-01
  8.50000000E-01  8.50000000E-01  7.20000000E-01  8.50000000E-01  8.50000000E-01
  8.50000000E-01  8.50000000E-01  8.50000000E-01  7.20000000E-01  8.50000000E-01
  8.50000000E-01  8.50000000E-01  8.50000000E-01  8.50000000E-01  7.20000000E-01
  8.50000000E-01  8.50000000E-01  8.50000000E-01  8.50000000E-01  8.50000000E-01
  7.20000000E-01  8.50000000E-01  8.50000000E-01  8.50000000E-01  8.50000000E-01
  8.50000000E-01  7.20000000E-01  8.50000000E-01  8.50000000E-01  8.50000000E-01
  8.50000000E-01  8.50000000E-01  7.20000000E-01  8.50000000E-01  8.50000000E-01
  8.50000000E-01  8.50000000E-01  8.50000000E-01  7.20000000E-01  8.50000000E-01
  8.50000000E-01  8.50000000E-01  8.50000000E-01  8.50000000E-01  7.20000000E-01
  8.50000000E-01  8.50000000E-01  8.50000000E-01  8.50000000E-01  8.50000000E-01
  7.20000000E-01  8.50000000E-01  8.50000000E-01  8.50000000E-01  8.50000000E-01
  8.50000000E-01  7.20000000E-01  8.50000000E-01  8.50000000E-01  8.50000000E-01
  8.50000000E-01  8.50000000E-01  7.20000000E-01  8.50000000E-01  8.50000000E-01
  8.50000000E-01  8.50000000E-01  8.50000000E-01  7.20000000E-01  8.50000000E-01
  8.50000000E-01  8.50000000E-01  8.50000000E-01  8.50000000E-01  7.20000000E-01
  8.50000000E-01  8.50000000E-01  8.50000000E-01  8.50000000E-01  8.50000000E-01
  7.20000000E-01  8.50000000E-01  8.50000000E-01  8.50000000E-01  8.50000000E-01
  8.50000000E-01  7.20000000E-01  8.50000000E-01  8.50000000E-01  8.50000000E-01
  8.50000000E-01  8.50000000E-01  7.20000000E-01  8.50000000E-01  8.50000000E-01
  8.50000000E-01  8.50000000E-01  8.50000000E-01  7.20000000E-01  8.50000000E-01
  8.50000000E-01  8.50000000E-01  8.50000000E-01  8.50000000E-01  7.20000000E-01
  8.50000000E-01  8.50000000E-01  8.50000000E-01  8.50000000E-01  8.50000000E-01
  7.20000000E-01  8.50000000E-01  8.50000000E-01  8.50000000E-01  8.50000000E-01
  8.50000000E-01  7.20000000E-01  8.50000000E-01  8.50000000E-01  8.50000000E-01
  8.50000000E-01  8.50000000E-01  7.20000000E-01  8.50000000E-01  8.50000000E-01
  8.50000000E-01  8.50000000E-01  8.50000000E-01  7.20000000E-01  8.50000000E-01
  8.50000000E-01  8.50000000E-01  8.50000000E-01  8.50000000E-01  7.20000000E-01
  8.50000000E-01  8.50000000E-01  8.50000000E-01  8.50000000E-01  8.50000000E-01
  7.20000000E-01  8.50000000E-01  8.50000000E-01  8.50000000E-01  8.50000000E-01
  8.50000000E-01  7.20000000E-01  8.50000000E-01  8.50000000E-01  8.50000000E-01
  8.50000000E-01  8.50000000E-01  7.20000000E-01  8.50000000E-01  8.50000000E-01
  8.50000000E-01  8.50000000E-01  8.50000000E-01  7.20000000E-01  8.50000000E-01
  8.50000000E-01  8.50000000E-01  8.50000000E-01  8.50000000E-01  7.20000000E-01
  8.50000000E-01  8.50000000E-01  8.50000000E-01  8.50000000E-01  8.50000000E-01
  7.20000000E-01  8.50000000E-01  8.50000000E-01  8.50000000E-01  8.50000000E-01
  8.50000000E-01  7.20000000E-01  8.50000000E-01  8.50000000E-01  8.50000000E-01
  8.50000000E-01  8.50000000E-01  7.20000000E-01  8.50000000E-01  8.50000000E-01
  8.50000000E-01  8.50000000E-01  8.50000000E-01  7.20000000E-01  8.50000000E-01
  8.50000000E-01  8.50000000E-01  8.50000000E-01  8.50000000E-01  7.20000000E-01
  8.50000000E-01  8.50000000E-01  8.50000000E-01  8.50000000E-01  8.50000000E-01
  7.20000000E-01  8.50000000E-01  8.50000000E-01  8.50000000E-01  8.50000000E-01
  8.50000000E-01  7.20000000E-01  8.50000000E-01  8.50000000E-01  8.50000000E-01
  8.50000000E-01  8.50000000E-01  7.20000000E-01  8.50000000E-01  8.50000000E-01
  8.50000000E-01  8.50000000E-01  8.50000000E-01  7.20000000E-01  8.50000000E-01
  8.50000000E-01  8.50000000E-01  8.50000000E-01  8.50000000E-01  7.20000000E-01
  8.50000000E-01  8.50000000E-01  8.50000000E-01  8.50000000E-01  8.50000000E-01
  7.20000000E-01  8.50000000E-01  8.50000000E-01  8.50000000E-01  8.50000000E-01
  8.50000000E-01  7.20000000E-01  8.50000000E-01  8.50000000E-01  8.50000000E-01
  8.50000000E-01  8.50000000E-01  7.20000000E-01  8.50000000E-01  8.50000000E-01
  8.50000000E-01  8.50000000E-01  8.50000000E-01  7.20000000E-01  8.50000000E-01
  8.50000000E-01  8.50000000E-01  8.50000000E-01  8.50000000E-01  7.20000000E-01
  8.50000000E-01  8.50000000E-01  8.50000000E-01  8.50000000E-01  8.50000000E-01
  7.20000000E-01  8.50000000E-01  8.50000000E-01  8.50000000E-01  8.50000000E-01
  8.50000000E-01  7.20000000E-01  8.50000000E-01  8.50000000E-01  8.50000000E-01
  8.50000000E-01  8.50000000E-01  7.20000000E-01  8.50000000E-01  8.50000000E-01
  8.50000000E-01  8.50000000E-01  8.50000000E-01  7.20000000E-01  8.50000000E-01
  8.50000000E-01  8.50000000E-01  8.50000000E-01  8.50000000E-01  7.20000000E-01
  8.50000000E-01  8.50000000E-01  8.50000000E-01  8.50000000E-01  8.50000000E-01
  7.20000000E-01  8.50000000E-01  8.50000000E-01  8.50000000E-01  8.50000000E-01
  8.50000000E-01  7.20000000E-01  8.50000000E-01  8.50000000E-01  8.50000000E-01
  8.50000000E-01  8.50000000E-01  7.20000000E-01  8.50000000E-01  8.50000000E-01
  8.50000000E-01  8.50000000E-01  8.50000000E-01  7.20000000E-01  8.50000000E-01
  8.50000000E-01  8.50000000E-01  8.50000000E-01  8.50000000E-01  7.20000000E-01
  8.50000000E-01  8.50000000E-01  8.50000000E-01  8.50000000E-01  8.50000000E-01
  7.20000000E-01  8.50000000E-01  8.50000000E-01  8.50000000E-01  8.50000000E-01
  8.50000000E-01  7.20000000E-01  8.50000000E-01  8.50000000E-01  8.50000000E-01
  8.50000000E-01  8.50000000E-01  7.20000000E-01  8.50000000E-01  8.50000000E-01
  8.50000000E-01  8.50000000E-01  8.50000000E-01  7.20000000E-01  8.50000000E-01
  8.50000000E-01  8.50000000E-01  8.50000000E-01  8.50000000E-01  7.20000000E-01
  8.50000000E-01  8.50000000E-01  8.50000000E-01  8.50000000E-01  8.50000000E-01
  7.20000000E-01  8.50000000E-01  8.50000000E-01  8.50000000E-01  8.50000000E-01
  8.50000000E-01  7.20000000E-01  8.50000000E-01  8.50000000E-01  8.50000000E-01
  8.50000000E-01  8.50000000E-01  7.20000000E-01  8.50000000E-01  8.50000000E-01
  8.50000000E-01  8.50000000E-01  8.50000000E-01  7.20000000E-01  8.50000000E-01
  8.50000000E-01  8.50000000E-01  8.50000000E-01  8.50000000E-01  7.20000000E-01
  8.50000000E-01  8.50000000E-01  8.50000000E-01  8.50000000E-01  8.50000000E-01
  7.20000000E-01  8.50000000E-01  8.50000000E-01  8.50000000E-01  8.50000000E-01
  8.50000000E-01  7.20000000E-01  8.50000000E-01  8.50000000E-01  8.50000000E-01
  8.50000000E-01  8.50000000E-01  7.20000000E-01  8.50000000E-01  8.50000000E-01
  8.50000000E-01  8.50000000E-01  8.50000000E-01  7.20000000E-01  8.50000000E-01
  8.50000000E-01  8.50000000E-01  8.50000000E-01  8.50000000E-01  7.20000000E-01
  8.50000000E-01  8.50000000E-01  8.50000000E-01  8.50000000E-01  8.50000000E-01
  7.20000000E-01  8.50000000E-01  8.50000000E-01  8.50000000E-01  8.50000000E-01
  8.50000000E-01  7.20000000E-01  8.50000000E-01  8.50000000E-01  8.50000000E-01
  8.50000000E-01  8.50000000E-01  7.20000000E-01  8.50000000E-01  8.50000000E-01
  8.50000000E-01  8.50000000E-01  8.50000000E-01  7.20000000E-01  8.50000000E-01
  8.50000000E-01  8.50000000E-01  8.50000000E-01  8.50000000E-01  7.20000000E-01
  8.50000000E-01  8.50000000E-01  8.50000000E-01  8.50000000E-01  8.50000000E-01
  7.20000000E-01  8.50000000E-01  8.50000000E-01  8.50000000E-01  8.50000000E-01
  8.50000000E-01  7.20000000E-01  8.50000000E-01  8.50000000E-01  8.50000000E-01
  8.50000000E-01  8.50000000E-01  7.20000000E-01  8.50000000E-01  8.50000000E-01
  8.50000000E-01  8.50000000E-01  8.50000000E-01  7.20000000E-01  8.50000000E-01
  8.50000000E-01  8.50000000E-01  8.50000000E-01  8.50000000E-01  7.20000000E-01
  8.50000000E-01  8.50000000E-01  8.50000000E-01  8.50000000E-01  8.50000000E-01
  7.20000000E-01  8.50000000E-01  8.50000000E-01  8.50000000E-01  8.50000000E-01
  8.50000000E-01  7.20000000E-01  8.50000000E-01  8.50000000E-01  8.50000000E-01
  8.50000000E-01  8.50000000E-01  7.20000000E-01  8.50000000E-01  8.50000000E-01
  8.50000000E-01  8.50000000E-01  8.50000000E-01  7.20000000E-01  8.50000000E-01
  8.50000000E-01  8.50000000E-01  8.50000000E-01  8.50000000E-01  7.20000000E-01
  8.50000000E-01  8.50000000E-01  8.50000000E-01  8.50000000E-01  8.50000000E-01
  7.20000000E-01  8.50000000E-01  8.50000000E-01  8.50000000E-01  8.50000000E-01
  8.50000000E-01  7.20000000E-01  8.50000000E-01  8.50000000E-01  8.50000000E-01
  8.50000000E-01  8.50000000E-01  7.20000000E-01  8.50000000E-01  8.50000000E-01
  8.50000000E-01  8.50000000E-01  8.50000000E-01  7.20000000E-01  8.50000000E-01
  8.50000000E-01  8.50000000E-01  8.50000000E-01  8.50000000E-01  7.20000000E-01
  8.50000000E-01  8.50000000E-01  8.50000000E-01  8.50000000E-01  8.50000000E-01
  7.20000000E-01  8.50000000E-01  8.50000000E-01  8.50000000E-01  8.50000000E-01
  8.50000000E-01  7.20000000E-01  8.50000000E-01  8.50000000E-01  8.50000000E-01
  8.50000000E-01  8.50000000E-01  7.20000000E-01  8.50000000E-01  8.50000000E-01
  8.50000000E-01  8.50000000E-01  8.50000000E-01  7.20000000E-01  8.50000000E-01
  8.50000000E-01  8.50000000E-01  8.50000000E-01  8.50000000E-01  7.20000000E-01
  8.50000000E-01  8.50000000E-01  8.50000000E-01  8.50000000E-01  8.50000000E-01
  7.20000000E-01  8.50000000E-01  8.50000000E-01  8.50000000E-01  8.50000000E-01
  8.50000000E-01  7.20000000E-01  8.50000000E-01  8.50000000E-01  8.50000000E-01
  8.50000000E-01  8.50000000E-01  7.20000000E-01  8.50000000E-01  8.50000000E-01
  8.50000000E-01  8.50000000E-01  8.50000000E-01  7.20000000E-01  8.50000000E-01
  8.50000000E-01  8.50000000E-01  8.50000000E-01  8.50000000E-01  7.20000000E-01
  8.50000000E-01  8.50000000E-01  8.50000000E-01  8.50000000E-01  8.50000000E-01
  7.20000000E-01  8.50000000E-01  8.50000000E-01  8.50000000E-01  8.50000000E-01
  8.50000000E-01  7.20000000E-01  8.50000000E-01  8.50000000E-01  8.50000000E-01
  8.50000000E-01  8.50000000E-01  7.20000000E-01  8.50000000E-01  8.50000000E-01
  8.50000000E-01  8.50000000E-01  8.50000000E-01  7.20000000E-01  8.50000000E-01
  8.50000000E-01  8.50000000E-01  8.50000000E-01  8.50000000E-01  7.20000000E-01
  8.50000000E-01  8.50000000E-01  8.50000000E-01  8.50000000E-01  8.50000000E-01
  7.20000000E-01  8.50000000E-01  8.50000000E-01  8.50000000E-01  8.50000000E-01
  8.50000000E-01  7.20000000E-01  8.50000000E-01  8.50000000E-01  8.50000000E-01
  8.50000000E-01  8.50000000E-01  7.20000000E-01  8.50000000E-01  8.50000000E-01
  8.50000000E-01  8.50000000E-01  8.50000000E-01  7.20000000E-01  8.50000000E-01
  8.50000000E-01  8.50000000E-01  8.50000000E-01  8.50000000E-01  7.20000000E-01
  8.50000000E-01  8.50000000E-01  8.50000000E-01  8.50000000E-01  8.50000000E-01
  7.20000000E-01  8.50000000E-01  8.50000000E-01  8.50000000E-01  8.50000000E-01
  8.50000000E-01  7.20000000E-01  8.50000000E-01  8.50000000E-01  8.50000000E-01
  8.50000000E-01  8.50000000E-01  7.20000000E-01  8.50000000E-01  8.50000000E-01
  8.50000000E-01  8.50000000E-01  8.50000000E-01  7.20000000E-01  8.50000000E-01
  8.50000000E-01  8.50000000E-01  8.50000000E-01  8.50000000E-01  7.20000000E-01
  8.50000000E-01  8.50000000E-01  8.50000000E-01  8.50000000E-01  8.50000000E-01
  7.20000000E-01  8.50000000E-01  8.50000000E-01  8.50000000E-01  8.50000000E-01
  8.50000000E-01  7.20000000E-01  8.50000000E-01  8.50000000E-01  8.50000000E-01
  8.50000000E-01  8.50000000E-01  7.20000000E-01  8.50000000E-01  8.50000000E-01
  8.50000000E-01  8.50000000E-01  8.50000000E-01  7.20000000E-01  8.50000000E-01
  8.50000000E-01  8.50000000E-01  8.50000000E-01  8.50000000E-01  7.20000000E-01
  8.50000000E-01  8.50000000E-01  8.50000000E-01  8.50000000E-01  8.50000000E-01
  7.20000000E-01  8.50000000E-01  8.50000000E-01  8.50000000E-01  8.50000000E-01
  8.50000000E-01  7.20000000E-01  8.50000000E-01  8.50000000E-01  8.50000000E-01
  8.50000000E-01  8.50000000E-01  7.20000000E-01  8.50000000E-01  8.50000000E-01
  8.50000000E-01  8.50000000E-01  8.50000000E-01  7.20000000E-01  8.50000000E-01
  8.50000000E-01  8.50000000E-01  8.50000000E-01  8.50000000E-01  7.20000000E-01
  8.50000000E-01  8.50000000E-01  8.50000000E-01  8.50000000E-01  8.50000000E-01
  7.20000000E-01  8.50000000E-01  8.50000000E-01  8.50000000E-01  8.50000000E-01
  8.50000000E-01  7.20000000E-01  8.50000000E-01  8.50000000E-01  8.50000000E-01
  8.50000000E-01  8.50000000E-01  7.20000000E-01  8.50000000E-01  8.50000000E-01
  8.50000000E-01  8.50000000E-01  8.50000000E-01  7.20000000E-01  8.50000000E-01
  8.50000000E-01  8.50000000E-01  8.50000000E-01  8.50000000E-01  7.20000000E-01
  8.50000000E-01  8.50000000E-01  8.50000000E-01  8.50000000E-01  8.50000000E-01
  7.20000000E-01  8.50000000E-01  8.50000000E-01  8.50000000E-01  8.50000000E-01
  8.50000000E-01  7.20000000E-01  8.50000000E-01  8.50000000E-01  8.50000000E-01
  8.50000000E-01  8.50000000E-01  7.20000000E-01  8.50000000E-01  8.50000000E-01
  8.50000000E-01  8.50000000E-01  8.50000000E-01  7.20000000E-01  8.50000000E-01
  8.50000000E-01  8.50000000E-01  8.50000000E-01  8.50000000E-01  7.20000000E-01
  8.50000000E-01  8.50000000E-01  8.50000000E-01  8.50000000E-01  8.50000000E-01
  7.20000000E-01  8.50000000E-01  8.50000000E-01  8.50000000E-01  8.50000000E-01
  8.50000000E-01  7.20000000E-01  8.50000000E-01  8.50000000E-01  8.50000000E-01
  8.50000000E-01  8.50000000E-01  7.20000000E-01  8.50000000E-01  8.50000000E-01
  8.50000000E-01  8.50000000E-01  8.50000000E-01  7.20000000E-01  8.50000000E-01
  8.50000000E-01  8.50000000E-01  8.50000000E-01  8.50000000E-01  7.20000000E-01
  8.50000000E-01  8.50000000E-01  8.50000000E-01  8.50000000E-01  8.50000000E-01
  7.20000000E-01  8.50000000E-01  8.50000000E-01  8.50000000E-01  8.50000000E-01
  8.50000000E-01  7.20000000E-01  8.50000000E-01  8.50000000E-01  8.50000000E-01
  8.50000000E-01  8.50000000E-01  7.20000000E-01  8.50000000E-01  8.50000000E-01
  8.50000000E-01  8.50000000E-01  8.50000000E-01  7.20000000E-01  8.50000000E-01
  8.50000000E-01  8.50000000E-01  8.50000000E-01  8.50000000E-01  7.20000000E-01
  8.50000000E-01  8.50000000E-01  8.50000000E-01  8.50000000E-01  8.50000000E-01
  7.20000000E-01  8.50000000E-01  8.50000000E-01  8.50000000E-01  8.50000000E-01
  8.50000000E-01  7.20000000E-01  8.50000000E-01  8.50000000E-01  8.50000000E-01
  8.50000000E-01  8.50000000E-01  7.20000000E-01  8.50000000E-01  8.50000000E-01
  8.50000000E-01  8.50000000E-01  8.50000000E-01  7.20000000E-01  8.50000000E-01
  8.50000000E-01  8.50000000E-01  8.50000000E-01  8.50000000E-01  7.20000000E-01
  8.50000000E-01  8.50000000E-01  8.50000000E-01  8.50000000E-01  8.50000000E-01
  7.20000000E-01  8.50000000E-01  8.50000000E-01  8.50000000E-01  8.50000000E-01
  8.50000000E-01  7.20000000E-01  8.50000000E-01  8.50000000E-01  8.50000000E-01
  8.50000000E-01  8.50000000E-01  7.20000000E-01  8.50000000E-01  8.50000000E-01
  8.50000000E-01  8.50000000E-01  8.50000000E-01  7.20000000E-01  8.50000000E-01
  8.50000000E-01  8.50000000E-01  8.50000000E-01  8.50000000E-01  7.20000000E-01
  8.50000000E-01  8.50000000E-01  8.50000000E-01  8.50000000E-01  8.50000000E-01
  7.20000000E-01  8.50000000E-01  8.50000000E-01  8.50000000E-01  8.50000000E-01
  8.50000000E-01  7.20000000E-01  8.50000000E-01  8.50000000E-01  8.50000000E-01
  8.50000000E-01  8.50000000E-01  7.20000000E-01  8.50000000E-01  8.50000000E-01
  8.50000000E-01  8.50000000E-01  8.50000000E-01  7.20000000E-01  8.50000000E-01
  8.50000000E-01  8.50000000E-01  8.50000000E-01  8.50000000E-01  7.20000000E-01
  8.50000000E-01  8.50000000E-01  8.50000000E-01  8.50000000E-01  8.50000000E-01
  7.20000000E-01  8.50000000E-01  8.50000000E-01  8.50000000E-01  8.50000000E-01
  8.50000000E-01  7.20000000E-01  8.50000000E-01  8.50000000E-01  8.50000000E-01
  8.50000000E-01  8.50000000E-01  7.20000000E-01  8.50000000E-01  8.50000000E-01
  8.50000000E-01  8.50000000E-01  8.50000000E-01  7.20000000E-01  8.50000000E-01
  8.50000000E-01  8.50000000E-01  8.50000000E-01  8.50000000E-01  7.20000000E-01
  8.50000000E-01  8.50000000E-01  8.50000000E-01  8.50000000E-01  8.50000000E-01
  7.20000000E-01  8.50000000E-01  8.50000000E-01  8.50000000E-01  8.50000000E-01
  8.50000000E-01  7.20000000E-01  8.50000000E-01  8.50000000E-01  8.50000000E-01
  8.50000000E-01  8.50000000E-01  7.20000000E-01  8.50000000E-01  8.50000000E-01
  8.50000000E-01  8.50000000E-01  8.50000000E-01  7.20000000E-01  8.50000000E-01
  8.50000000E-01  8.50000000E-01  8.50000000E-01  8.50000000E-01  7.20000000E-01
  8.50000000E-01  8.50000000E-01  8.50000000E-01  8.50000000E-01  8.50000000E-01
  7.20000000E-01  8.50000000E-01  8.50000000E-01  8.50000000E-01  8.50000000E-01
  8.50000000E-01  7.20000000E-01  8.50000000E-01  8.50000000E-01  8.50000000E-01
  8.50000000E-01  8.50000000E-01  7.20000000E-01  8.50000000E-01  8.50000000E-01
  8.50000000E-01  8.50000000E-01  8.50000000E-01  7.20000000E-01  8.50000000E-01
  8.50000000E-01  8.50000000E-01  8.50000000E-01  8.50000000E-01  7.20000000E-01
  8.50000000E-01  8.50000000E-01  8.50000000E-01  8.50000000E-01  8.50000000E-01
  7.20000000E-01  8.50000000E-01  8.50000000E-01  8.50000000E-01  8.50000000E-01
  8.50000000E-01  7.20000000E-01  8.50000000E-01  8.50000000E-01  8.50000000E-01
  8.50000000E-01  8.50000000E-01  7.20000000E-01  8.50000000E-01  8.50000000E-01
  8.50000000E-01  8.50000000E-01  8.50000000E-01  7.20000000E-01  8.50000000E-01
  8.50000000E-01  8.50000000E-01  8.50000000E-01  8.50000000E-01  7.20000000E-01
  8.50000000E-01  8.50000000E-01  8.50000000E-01  8.50000000E-01  8.50000000E-01
  7.20000000E-01  8.50000000E-01  8.50000000E-01  8.50000000E-01  8.50000000E-01
  8.50000000E-01  7.20000000E-01  8.50000000E-01  8.50000000E-01  8.50000000E-01
  8.50000000E-01  8.50000000E-01  7.20000000E-01  8.50000000E-01  8.50000000E-01
  8.50000000E-01  8.50000000E-01  8.50000000E-01  7.20000000E-01  8.50000000E-01
  8.50000000E-01  8.50000000E-01  8.50000000E-01  8.50000000E-01  7.20000000E-01
  8.50000000E-01  8.50000000E-01  8.50000000E-01  8.50000000E-01  8.50000000E-01
  7.20000000E-01  8.50000000E-01  8.50000000E-01  8.50000000E-01  8.50000000E-01
  8.50000000E-01  7.20000000E-01  8.50000000E-01  8.50000000E-01  8.50000000E-01
  8.50000000E-01  8.50000000E-01  7.20000000E-01  8.50000000E-01  8.50000000E-01
  8.50000000E-01  8.50000000E-01  8.50000000E-01  7.20000000E-01  8.50000000E-01
  8.50000000E-01  8.50000000E-01  8.50000000E-01  8.50000000E-01  7.20000000E-01
  8.50000000E-01  8.50000000E-01  8.50000000E-01  8.50000000E-01  8.50000000E-01
  7.20000000E-01  8.50000000E-01  8.50000000E-01  8.50000000E-01  8.50000000E-01
  8.50000000E-01  7.20000000E-01  8.50000000E-01  8.50000000E-01  8.50000000E-01
  8.50000000E-01  8.50000000E-01  7.20000000E-01  8.50000000E-01  8.50000000E-01
  8.50000000E-01  8.50000000E-01  8.50000000E-01  7.20000000E-01  8.50000000E-01
  8.50000000E-01  8.50000000E-01  8.50000000E-01  8.50000000E-01  7.20000000E-01
  8.50000000E-01  8.50000000E-01  8.50000000E-01  8.50000000E-01  8.50000000E-01
  7.20000000E-01  8.50000000E-01  8.50000000E-01  8.50000000E-01  8.50000000E-01
  8.50000000E-01  7.20000000E-01  8.50000000E-01  8.50000000E-01  8.50000000E-01
  8.50000000E-01  8.50000000E-01  7.20000000E-01  8.50000000E-01  8.50000000E-01
  8.50000000E-01  8.50000000E-01  8.50000000E-01  7.20000000E-01  8.50000000E-01
  8.50000000E-01  8.50000000E-01  8.50000000E-01  8.50000000E-01  7.20000000E-01
  8.50000000E-01  8.50000000E-01  8.50000000E-01  8.50000000E-01  8.50000000E-01
  7.20000000E-01  8.50000000E-01  8.50000000E-01  8.50000000E-01  8.50000000E-01
  8.50000000E-01  7.20000000E-01  8.50000000E-01  8.50000000E-01  8.50000000E-01
  8.50000000E-01  8.50000000E-01  7.20000000E-01  8.50000000E-01  8.50000000E-01
  8.50000000E-01  8.50000000E-01  8.50000000E-01  7.20000000E-01  8.50000000E-01
  8.50000000E-01  8.50000000E-01  8.50000000E-01  8.50000000E-01  7.20000000E-01
  8.50000000E-01  8.50000000E-01  8.50000000E-01  8.50000000E-01  8.50000000E-01
  7.20000000E-01  8.50000000E-01  8.50000000E-01  8.50000000E-01  8.50000000E-01
  8.50000000E-01  7.20000000E-01  8.50000000E-01  8.50000000E-01  8.50000000E-01
  8.50000000E-01  8.50000000E-01  7.20000000E-01  8.50000000E-01  8.50000000E-01
  8.50000000E-01  8.50000000E-01  8.50000000E-01  7.20000000E-01  8.50000000E-01
  8.50000000E-01  8.50000000E-01  8.50000000E-01  8.50000000E-01  7.20000000E-01
  8.50000000E-01  8.50000000E-01  8.50000000E-01  8.50000000E-01  8.50000000E-01
  7.20000000E-01  8.50000000E-01  8.50000000E-01  8.50000000E-01  8.50000000E-01
  8.50000000E-01  7.20000000E-01  8.50000000E-01  8.50000000E-01  8.50000000E-01
  8.50000000E-01  8.50000000E-01  7.20000000E-01  8.50000000E-01  8.50000000E-01
  8.50000000E-01  8.50000000E-01  8.50000000E-01  7.20000000E-01  8.50000000E-01
  8.50000000E-01  8.50000000E-01  8.50000000E-01  8.50000000E-01  7.20000000E-01
  8.50000000E-01  8.50000000E-01  8.50000000E-01  8.50000000E-01  8.50000000E-01
  7.20000000E-01  8.50000000E-01  8.50000000E-01  8.50000000E-01  8.50000000E-01
  8.50000000E-01  7.20000000E-01  8.50000000E-01  8.50000000E-01  8.50000000E-01
  8.50000000E-01  8.50000000E-01  7.20000000E-01  8.50000000E-01  8.50000000E-01
  8.50000000E-01  8.50000000E-01  8.50000000E-01  7.20000000E-01  8.50000000E-01
  8.50000000E-01  8.50000000E-01  8.50000000E-01  8.50000000E-01  7.20000000E-01
  8.50000000E-01  8.50000000E-01  8.50000000E-01  8.50000000E-01  8.50000000E-01
  7.20000000E-01  8.50000000E-01  8.50000000E-01  8.50000000E-01  8.50000000E-01
  8.50000000E-01  7.20000000E-01  8.50000000E-01  8.50000000E-01  8.50000000E-01
  8.50000000E-01  8.50000000E-01  7.20000000E-01  8.50000000E-01  8.50000000E-01
  8.50000000E-01  8.50000000E-01  8.50000000E-01  7.20000000E-01  8.50000000E-01
  8.50000000E-01  8.50000000E-01  8.50000000E-01  8.50000000E-01  7.20000000E-01
  8.50000000E-01  8.50000000E-01  8.50000000E-01  8.50000000E-01  8.50000000E-01
  7.20000000E-01  8.50000000E-01  8.50000000E-01  8.50000000E-01  8.50000000E-01
  8.50000000E-01  7.20000000E-01  8.50000000E-01  8.50000000E-01  8.50000000E-01
  8.50000000E-01  8.50000000E-01  7.20000000E-01  8.50000000E-01  8.50000000E-01
  8.50000000E-01  8.50000000E-01  8.50000000E-01  7.20000000E-01  8.50000000E-01
  8.50000000E-01  8.50000000E-01  8.50000000E-01  8.50000000E-01  7.20000000E-01
  8.50000000E-01  8.50000000E-01  8.50000000E-01  8.50000000E-01  8.50000000E-01
  7.20000000E-01  8.50000000E-01  8.50000000E-01  8.50000000E-01  8.50000000E-01
  8.50000000E-01  7.20000000E-01  8.50000000E-01  8.50000000E-01  8.50000000E-01
  8.50000000E-01  8.50000000E-01  7.20000000E-01  8.50000000E-01  8.50000000E-01
  8.50000000E-01  8.50000000E-01  8.50000000E-01  7.20000000E-01  8.50000000E-01
  8.50000000E-01  8.50000000E-01  8.50000000E-01  8.50000000E-01  7.20000000E-01
  8.50000000E-01  8.50000000E-01  8.50000000E-01  8.50000000E-01  8.50000000E-01
  7.20000000E-01  8.50000000E-01  8.50000000E-01  8.50000000E-01  8.50000000E-01
  8.50000000E-01  7.20000000E-01  8.50000000E-01  8.50000000E-01  8.50000000E-01
  8.50000000E-01  8.50000000E-01  7.20000000E-01  8.50000000E-01  8.50000000E-01
  8.50000000E-01  8.50000000E-01  8.50000000E-01  7.20000000E-01  8.50000000E-01
  8.50000000E-01  8.50000000E-01  8.50000000E-01  8.50000000E-01  7.20000000E-01
  8.50000000E-01  8.50000000E-01  8.50000000E-01  8.50000000E-01  8.50000000E-01
  7.20000000E-01  8.50000000E-01  8.50000000E-01  8.50000000E-01  8.50000000E-01
  8.50000000E-01  7.20000000E-01  8.50000000E-01  8.50000000E-01  8.50000000E-01
  8.50000000E-01  8.50000000E-01  7.20000000E-01  8.50000000E-01  8.50000000E-01
  8.50000000E-01  8.50000000E-01  8.50000000E-01  7.20000000E-01  8.50000000E-01
  8.50000000E-01  8.50000000E-01  8.50000000E-01  8.50000000E-01  7.20000000E-01
  8.50000000E-01  8.50000000E-01  8.50000000E-01  8.50000000E-01  8.50000000E-01
  7.20000000E-01  8.50000000E-01  8.50000000E-01  8.50000000E-01  8.50000000E-01
  8.50000000E-01  7.20000000E-01  8.50000000E-01  8.50000000E-01  8.50000000E-01
  8.50000000E-01  8.50000000E-01  7.20000000E-01  8.50000000E-01  8.50000000E-01
  8.50000000E-01  8.50000000E-01  8.50000000E-01  7.20000000E-01  8.50000000E-01
  8.50000000E-01  8.50000000E-01  8.50000000E-01  8.50000000E-01  7.20000000E-01
  8.50000000E-01  8.50000000E-01  8.50000000E-01  8.50000000E-01  8.50000000E-01
  7.20000000E-01  8.50000000E-01  8.50000000E-01  8.50000000E-01  8.50000000E-01
  8.50000000E-01  7.20000000E-01  8.50000000E-01  8.50000000E-01  8.50000000E-01
  8.50000000E-01  8.50000000E-01  7.20000000E-01  8.50000000E-01  8.50000000E-01
  8.50000000E-01  8.50000000E-01  8.50000000E-01  7.20000000E-01  8.50000000E-01
  8.50000000E-01  8.50000000E-01  8.50000000E-01  8.50000000E-01  7.20000000E-01
  8.50000000E-01  8.50000000E-01  8.50000000E-01  8.50000000E-01  8.50000000E-01
  7.20000000E-01  8.50000000E-01  8.50000000E-01  8.50000000E-01  8.50000000E-01
  8.50000000E-01  7.20000000E-01  8.50000000E-01  8.50000000E-01  8.50000000E-01
  8.50000000E-01  8.50000000E-01  7.20000000E-01  8.50000000E-01  8.50000000E-01
  8.50000000E-01  8.50000000E-01  8.50000000E-01  7.20000000E-01  8.50000000E-01
  8.50000000E-01  8.50000000E-01  8.50000000E-01  8.50000000E-01  7.20000000E-01
  8.50000000E-01  8.50000000E-01  8.50000000E-01  8.50000000E-01  8.50000000E-01
  7.20000000E-01  8.50000000E-01  8.50000000E-01  8.50000000E-01  8.50000000E-01
  8.50000000E-01  7.20000000E-01  8.50000000E-01  8.50000000E-01  8.50000000E-01
  8.50000000E-01  8.50000000E-01  7.20000000E-01  8.50000000E-01  8.50000000E-01
  8.50000000E-01  8.50000000E-01  8.50000000E-01  7.20000000E-01  8.50000000E-01
  8.50000000E-01  8.50000000E-01  8.50000000E-01  8.50000000E-01  7.20000000E-01
  8.50000000E-01  8.50000000E-01  8.50000000E-01  8.50000000E-01  8.50000000E-01
  7.20000000E-01  8.50000000E-01  8.50000000E-01  8.50000000E-01  8.50000000E-01
  8.50000000E-01  7.20000000E-01  8.50000000E-01  8.50000000E-01  8.50000000E-01
  8.50000000E-01  8.50000000E-01  7.20000000E-01  8.50000000E-01  8.50000000E-01
  8.50000000E-01  8.50000000E-01  8.50000000E-01  7.20000000E-01  8.50000000E-01
  8.50000000E-01  8.50000000E-01  8.50000000E-01  8.50000000E-01  7.20000000E-01
  8.50000000E-01  8.50000000E-01  8.50000000E-01  8.50000000E-01  8.50000000E-01
  7.20000000E-01  8.50000000E-01  8.50000000E-01  8.50000000E-01  8.50000000E-01
  8.50000000E-01  7.20000000E-01  8.50000000E-01  8.50000000E-01  8.50000000E-01
  8.50000000E-01  8.50000000E-01  7.20000000E-01  8.50000000E-01  8.50000000E-01
  8.50000000E-01  8.50000000E-01  8.50000000E-01  7.20000000E-01  8.50000000E-01
  8.50000000E-01  8.50000000E-01  8.50000000E-01  8.50000000E-01  7.20000000E-01
  8.50000000E-01  8.50000000E-01  8.50000000E-01  8.50000000E-01  8.50000000E-01
  7.20000000E-01  8.50000000E-01  8.50000000E-01  8.50000000E-01  8.50000000E-01
  8.50000000E-01  7.20000000E-01  8.50000000E-01  8.50000000E-01  8.50000000E-01
  8.50000000E-01  8.50000000E-01  7.20000000E-01  8.50000000E-01  8.50000000E-01
  8.50000000E-01  8.50000000E-01  8.50000000E-01  7.20000000E-01  8.50000000E-01
  8.50000000E-01  8.50000000E-01  8.50000000E-01  8.50000000E-01  7.20000000E-01
  8.50000000E-01  8.50000000E-01  8.50000000E-01  8.50000000E-01  8.50000000E-01
  7.20000000E-01  8.50000000E-01  8.50000000E-01  8.50000000E-01  8.50000000E-01
  8.50000000E-01  7.20000000E-01  8.50000000E-01  8.50000000E-01  8.50000000E-01
  8.50000000E-01  8.50000000E-01  7.20000000E-01  8.50000000E-01  8.50000000E-01
  8.50000000E-01  8.50000000E-01  8.50000000E-01  7.20000000E-01  8.50000000E-01
  8.50000000E-01  8.50000000E-01  8.50000000E-01  8.50000000E-01  7.20000000E-01
  8.50000000E-01  8.50000000E-01  8.50000000E-01  8.50000000E-01  8.50000000E-01
  7.20000000E-01  8.50000000E-01  8.50000000E-01  8.50000000E-01  8.50000000E-01
  8.50000000E-01  7.20000000E-01  8.50000000E-01  8.50000000E-01  8.50000000E-01
  8.50000000E-01  8.50000000E-01  7.20000000E-01  8.50000000E-01  8.50000000E-01
  8.50000000E-01  8.50000000E-01  8.50000000E-01  7.20000000E-01  8.50000000E-01
  8.50000000E-01  8.50000000E-01  8.50000000E-01  8.50000000E-01  7.20000000E-01
  8.50000000E-01  8.50000000E-01  8.50000000E-01  8.50000000E-01  8.50000000E-01
  7.20000000E-01  8.50000000E-01  8.50000000E-01  8.50000000E-01  8.50000000E-01
  8.50000000E-01  7.20000000E-01  8.50000000E-01  8.50000000E-01  8.50000000E-01
  8.50000000E-01  8.50000000E-01  7.20000000E-01  8.50000000E-01  8.50000000E-01
  8.50000000E-01  8.50000000E-01  8.50000000E-01  7.20000000E-01  8.50000000E-01
  8.50000000E-01  8.50000000E-01  8.50000000E-01  8.50000000E-01  7.20000000E-01
  8.50000000E-01  8.50000000E-01  8.50000000E-01  8.50000000E-01  8.50000000E-01
  7.20000000E-01  8.50000000E-01  8.50000000E-01  8.50000000E-01  8.50000000E-01
  8.50000000E-01  7.20000000E-01  8.50000000E-01  8.50000000E-01  8.50000000E-01
  8.50000000E-01  8.50000000E-01  7.20000000E-01  8.50000000E-01  8.50000000E-01
  8.50000000E-01  8.50000000E-01  8.50000000E-01  7.20000000E-01  8.50000000E-01
  8.50000000E-01  8.50000000E-01  8.50000000E-01  8.50000000E-01  7.20000000E-01
  8.50000000E-01  8.50000000E-01  8.50000000E-01  8.50000000E-01  8.50000000E-01
  7.20000000E-01  8.50000000E-01  8.50000000E-01  8.50000000E-01  8.50000000E-01
  8.50000000E-01  7.20000000E-01  8.50000000E-01  8.50000000E-01  8.50000000E-01
  8.50000000E-01  8.50000000E-01  7.20000000E-01  8.50000000E-01  8.50000000E-01
  8.50000000E-01  8.50000000E-01  8.50000000E-01  7.20000000E-01  8.50000000E-01
  8.50000000E-01  8.50000000E-01  8.50000000E-01  8.50000000E-01  7.20000000E-01
  8.50000000E-01  8.50000000E-01  8.50000000E-01  8.50000000E-01  8.50000000E-01
  7.20000000E-01  8.50000000E-01  8.50000000E-01  8.50000000E-01  8.50000000E-01
  8.50000000E-01  7.20000000E-01  8.50000000E-01  8.50000000E-01  8.50000000E-01
  8.50000000E-01  8.50000000E-01  7.20000000E-01  8.50000000E-01  8.50000000E-01
  8.50000000E-01  8.50000000E-01  8.50000000E-01  7.20000000E-01  8.50000000E-01
  8.50000000E-01  8.50000000E-01  8.50000000E-01  8.50000000E-01  7.20000000E-01
  8.50000000E-01  8.50000000E-01  8.50000000E-01  8.50000000E-01  8.50000000E-01
  7.20000000E-01  8.50000000E-01  8.50000000E-01  8.50000000E-01  8.50000000E-01
  8.50000000E-01  7.20000000E-01  8.50000000E-01  8.50000000E-01  8.50000000E-01
  8.50000000E-01  8.50000000E-01  7.20000000E-01  8.50000000E-01  8.50000000E-01
  8.50000000E-01  8.50000000E-01  8.50000000E-01  7.20000000E-01  8.50000000E-01
  8.50000000E-01  8.50000000E-01  8.50000000E-01  8.50000000E-01  7.20000000E-01
  8.50000000E-01  8.50000000E-01  8.50000000E-01  8.50000000E-01  8.50000000E-01
  7.20000000E-01  8.50000000E-01  8.50000000E-01  8.50000000E-01  8.50000000E-01
  8.50000000E-01  7.20000000E-01  8.50000000E-01  8.50000000E-01  8.50000000E-01
  8.50000000E-01  8.50000000E-01  7.20000000E-01  8.50000000E-01  8.50000000E-01
  8.50000000E-01  8.50000000E-01  8.50000000E-01  7.20000000E-01  8.50000000E-01
  8.50000000E-01  8.50000000E-01  8.50000000E-01  8.50000000E-01  7.20000000E-01
  8.50000000E-01  8.50000000E-01  8.50000000E-01  8.50000000E-01  8.50000000E-01
  7.20000000E-01  8.50000000E-01  8.50000000E-01  8.50000000E-01  8.50000000E-01
  8.50000000E-01  7.20000000E-01  8.50000000E-01  8.50000000E-01  8.50000000E-01
  8.50000000E-01  8.50000000E-01  7.20000000E-01  8.50000000E-01  8.50000000E-01
  8.50000000E-01  8.50000000E-01  8.50000000E-01  7.20000000E-01  8.50000000E-01
  8.50000000E-01  8.50000000E-01  8.50000000E-01  8.50000000E-01  7.20000000E-01
  8.50000000E-01  8.50000000E-01  8.50000000E-01  8.50000000E-01  8.50000000E-01
  7.20000000E-01  8.50000000E-01  8.50000000E-01  8.50000000E-01  8.50000000E-01
  8.50000000E-01  7.20000000E-01  8.50000000E-01  8.50000000E-01  8.50000000E-01
  8.50000000E-01  8.50000000E-01  7.20000000E-01  8.50000000E-01  8.50000000E-01
  8.50000000E-01  8.50000000E-01  8.50000000E-01  7.20000000E-01  8.50000000E-01
  8.50000000E-01  8.50000000E-01  8.50000000E-01  8.50000000E-01  7.20000000E-01
  8.50000000E-01  8.50000000E-01  8.50000000E-01  8.50000000E-01  8.50000000E-01
  7.20000000E-01  8.50000000E-01  8.50000000E-01  8.50000000E-01  8.50000000E-01
  8.50000000E-01  7.20000000E-01  8.50000000E-01  8.50000000E-01  8.50000000E-01
  8.50000000E-01  8.50000000E-01  7.20000000E-01  8.50000000E-01  8.50000000E-01
  8.50000000E-01  8.50000000E-01  8.50000000E-01  7.20000000E-01  8.50000000E-01
  8.50000000E-01  8.50000000E-01  8.50000000E-01  8.50000000E-01  7.20000000E-01
  8.50000000E-01  8.50000000E-01  8.50000000E-01  8.50000000E-01  8.50000000E-01
  7.20000000E-01  8.50000000E-01  8.50000000E-01  8.50000000E-01  8.50000000E-01
  8.50000000E-01  7.20000000E-01  8.50000000E-01  8.50000000E-01  8.50000000E-01
  8.50000000E-01  8.50000000E-01  7.20000000E-01  8.50000000E-01  8.50000000E-01
  8.50000000E-01  8.50000000E-01  8.50000000E-01  7.20000000E-01  8.50000000E-01
  8.50000000E-01  8.50000000E-01  8.50000000E-01  8.50000000E-01  7.20000000E-01
  8.50000000E-01  8.50000000E-01  8.50000000E-01  8.50000000E-01  8.50000000E-01
  7.20000000E-01  8.50000000E-01  8.50000000E-01  8.50000000E-01  8.50000000E-01
  8.50000000E-01  7.20000000E-01  8.50000000E-01  8.50000000E-01  8.50000000E-01
  8.50000000E-01  8.50000000E-01  7.20000000E-01  8.50000000E-01  8.50000000E-01
  8.50000000E-01  8.50000000E-01
%FLAG IPOL                                                                      
%FORMAT(1I8)                                                                    
       0
